 Entering Gaussian System, Link 0=g09
 Input=./MBO_L_0.gjf
 Output=./MBO_L_0.log
 Initial command:
 /nas02/apps/gaussian-09d01/em64t/g09/l1.exe "/lustre/appscr/gausswork/tcheshir/Gau-755.inp" -scrdir="/lustre/appscr/gausswork/tcheshir/"
 Entering Link 1 = /nas02/apps/gaussian-09d01/em64t/g09/l1.exe PID=       756.
  
 Copyright (c) 1988,1990,1992,1993,1995,1998,2003,2009,2013,
            Gaussian, Inc.  All Rights Reserved.
  
 This is part of the Gaussian(R) 09 program.  It is based on
 the Gaussian(R) 03 system (copyright 2003, Gaussian, Inc.),
 the Gaussian(R) 98 system (copyright 1998, Gaussian, Inc.),
 the Gaussian(R) 94 system (copyright 1995, Gaussian, Inc.),
 the Gaussian 92(TM) system (copyright 1992, Gaussian, Inc.),
 the Gaussian 90(TM) system (copyright 1990, Gaussian, Inc.),
 the Gaussian 88(TM) system (copyright 1988, Gaussian, Inc.),
 the Gaussian 86(TM) system (copyright 1986, Carnegie Mellon
 University), and the Gaussian 82(TM) system (copyright 1983,
 Carnegie Mellon University). Gaussian is a federally registered
 trademark of Gaussian, Inc.
  
 This software contains proprietary and confidential information,
 including trade secrets, belonging to Gaussian, Inc.
  
 This software is provided under written license and may be
 used, copied, transmitted, or stored only in accord with that
 written license.
  
 The following legend is applicable only to US Government
 contracts under FAR:
  
                    RESTRICTED RIGHTS LEGEND
  
 Use, reproduction and disclosure by the US Government is
 subject to restrictions as set forth in subparagraphs (a)
 and (c) of the Commercial Computer Software - Restricted
 Rights clause in FAR 52.227-19.
  
 Gaussian, Inc.
 340 Quinnipiac St., Bldg. 40, Wallingford CT 06492
  
  
 ---------------------------------------------------------------
 Warning -- This program may not be used in any manner that
 competes with the business of Gaussian, Inc. or will provide
 assistance to any competitor of Gaussian, Inc.  The licensee
 of this program is prohibited from giving any competitor of
 Gaussian, Inc. access to this program.  By using this program,
 the user acknowledges that Gaussian, Inc. is engaged in the
 business of creating and licensing software in the field of
 computational chemistry and represents and warrants to the
 licensee that it is not a competitor of Gaussian, Inc. and that
 it will not use this program in any manner prohibited above.
 ---------------------------------------------------------------
  

 Cite this work as:
 Gaussian 09, Revision D.01,
 M. J. Frisch, G. W. Trucks, H. B. Schlegel, G. E. Scuseria, 
 M. A. Robb, J. R. Cheeseman, G. Scalmani, V. Barone, B. Mennucci, 
 G. A. Petersson, H. Nakatsuji, M. Caricato, X. Li, H. P. Hratchian, 
 A. F. Izmaylov, J. Bloino, G. Zheng, J. L. Sonnenberg, M. Hada, 
 M. Ehara, K. Toyota, R. Fukuda, J. Hasegawa, M. Ishida, T. Nakajima, 
 Y. Honda, O. Kitao, H. Nakai, T. Vreven, J. A. Montgomery, Jr., 
 J. E. Peralta, F. Ogliaro, M. Bearpark, J. J. Heyd, E. Brothers, 
 K. N. Kudin, V. N. Staroverov, T. Keith, R. Kobayashi, J. Normand, 
 K. Raghavachari, A. Rendell, J. C. Burant, S. S. Iyengar, J. Tomasi, 
 M. Cossi, N. Rega, J. M. Millam, M. Klene, J. E. Knox, J. B. Cross, 
 V. Bakken, C. Adamo, J. Jaramillo, R. Gomperts, R. E. Stratmann, 
 O. Yazyev, A. J. Austin, R. Cammi, C. Pomelli, J. W. Ochterski, 
 R. L. Martin, K. Morokuma, V. G. Zakrzewski, G. A. Voth, 
 P. Salvador, J. J. Dannenberg, S. Dapprich, A. D. Daniels, 
 O. Farkas, J. B. Foresman, J. V. Ortiz, J. Cioslowski, 
 and D. J. Fox, Gaussian, Inc., Wallingford CT, 2013.
 
 ******************************************
 Gaussian 09:  EM64L-G09RevD.01 24-Apr-2013
                29-Feb-2016 
 ******************************************
 %nprocshared=8
 Will use up to    8 processors via shared memory.
 %nosave
 %mem=16GB
 %chk=MBO_L_0.chk
 ----------------------------------------------------------------------
 #p freq=savenormalmodes rb3lyp/lanl2dz scrf=check guess=(read,save) ge
 om=connectivity iop(7/33=1)
 ----------------------------------------------------------------------
 1/10=4,30=1,38=1,40=1,57=2/1,3;
 2/12=2,17=6,18=5,40=1/2;
 3/5=6,6=3,11=2,16=1,25=1,30=1,70=2,71=2,74=-5,116=1,140=1/1,2,3;
 4/5=1/1;
 5/5=2,38=6,98=1/2;
 8/6=4,10=90,11=11/1;
 11/6=1,8=1,9=11,15=111,16=1/1,2,10;
 10/6=1/2;
 6/7=2,8=2,9=2,10=2,18=1,28=1/1;
 7/8=1,10=1,25=1,33=1,92=1/1,2,3,16;
 1/10=4,30=1/3;
 99//99;
 Leave Link    1 at Mon Feb 29 09:22:56 2016, MaxMem=  2147483648 cpu:         1.0
 (Enter /nas02/apps/gaussian-09d01/em64t/g09/l101.exe)
 -----------------------------------
 Oxy myoglobin frequency calculation
 -----------------------------------
 Symbolic Z-matrix:
 Charge =  2 Multiplicity = 1
 Fe
 O                    1    B1
 O                    2    B2       1    A1
 N                    1    B3       2    A2       3    D1       0
 N                    1    B4       2    A3       3    D2       0
 N                    1    B5       2    A4       3    D3       0
 N                    1    B6       2    A5       3    D4       0
 C                    7    B7       1    A6       2    D5       0
 C                    5    B8       1    A7       2    D6       0
 C                    5    B9       1    A8       2    D7       0
 C                    6    B10      1    A9       2    D8       0
 C                    4    B11      1    A10      2    D9       0
 C                    12   B12      4    A11      1    D10      0
 C                    13   B13      12   A12      4    D11      0
 C                    9    B14      5    A13      1    D12      0
 C                    14   B15      13   A14      12   D13      0
 C                    13   B16      12   A15      4    D14      0
 C                    17   B17      13   A16      14   D15      0
 C                    18   B18      17   A17      13   D16      0
 O                    19   B19      18   A18      17   D17      0
 O                    19   B20      18   A19      17   D18      0
 C                    5    B21      1    A20      2    D19      0
 C                    22   B22      5    A21      1    D20      0
 C                    23   B23      22   A22      5    D21      0
 C                    10   B24      5    A23      1    D22      0
 C                    23   B25      22   A24      5    D23      0
 C                    24   B26      23   A25      22   D24      0
 C                    27   B27      24   A26      23   D25      0
 C                    6    B28      1    A27      2    D26      0
 C                    29   B29      6    A28      1    D27      0
 C                    30   B30      29   A29      6    D28      0
 C                    11   B31      6    A30      1    D29      0
 C                    30   B32      29   A31      6    D30      0
 C                    31   B33      30   A32      29   D31      0
 C                    34   B34      31   A33      30   D32      0
 C                    7    B35      1    A34      2    D33      0
 C                    36   B36      7    A35      1    D34      0
 C                    37   B37      36   A36      7    D35      0
 C                    38   B38      37   A37      1    D36      0
 C                    37   B39      36   A38      7    D37      0
 C                    38   B40      37   A39      36   D38      0
 C                    41   B41      38   A40      37   D39      0
 C                    42   B42      41   A41      38   D40      0
 O                    43   B43      42   A42      41   D41      0
 O                    43   B44      42   A43      41   D42      0
 H                    16   B45      14   A44      13   D43      0
 H                    16   B46      14   A45      13   D44      0
 H                    16   B47      14   A46      13   D45      0
 H                    17   B48      13   A47      12   D46      0
 H                    17   B49      13   A48      12   D47      0
 H                    18   B50      17   A49      13   D48      0
 H                    18   B51      17   A50      13   D49      0
 H                    26   B52      23   A51      22   D50      0
 H                    26   B53      23   A52      22   D51      0
 H                    26   B54      23   A53      22   D52      0
 H                    28   B55      27   A54      24   D53      0
 H                    28   B56      27   A55      24   D54      0
 H                    33   B57      30   A56      29   D55      0
 H                    33   B58      30   A57      29   D56      0
 H                    33   B59      30   A58      29   D57      0
 H                    40   B60      37   A59      36   D58      0
 H                    40   B61      37   A60      36   D59      0
 H                    40   B62      37   A61      36   D60      0
 H                    41   B63      38   A62      37   D61      0
 H                    41   B64      38   A63      37   D62      0
 H                    42   B65      41   A64      38   D63      0
 H                    42   B66      41   A65      38   D64      0
 H                    8    B67      7    A66      1    D65      0
 H                    9    B68      5    A67      1    D66      0
 H                    11   B69      6    A68      1    D67      0
 H                    10   B70      5    A69      1    D68      0
 H                    35   B71      34   A70      31   D69      0
 H                    35   B72      34   A71      31   D70      0
 H                    34   B73      31   A72      30   D71      0
 H                    27   B74      24   A73      23   D72      0
 H                    20   B75      19   A74      18   D73      0
 H                    45   B76      43   A75      42   D74      0
       Variables:
  B1                    1.82671                  
  B2                    1.2165                   
  B3                    1.94997                  
  B4                    1.94995                  
  B5                    1.94995                  
  B6                    1.94998                  
  B7                    2.46145                  
  B8                    2.47262                  
  B9                    2.46614                  
  B10                   2.45818                  
  B11                   1.36413                  
  B12                   1.47737                  
  B13                   1.37085                  
  B14                   1.35671                  
  B15                   1.50025                  
  B16                   1.50974                  
  B17                   1.5661                   
  B18                   1.5177                   
  B19                   1.3522                   
  B20                   1.25483                  
  B21                   1.37847                  
  B22                   1.45112                  
  B23                   1.39163                  
  B24                   1.36097                  
  B25                   1.50314                  
  B26                   1.44883                  
  B27                   1.36548                  
  B28                   1.37604                  
  B29                   1.45311                  
  B30                   1.39227                  
  B31                   1.36085                  
  B32                   1.50254                  
  B33                   1.4485                   
  B34                   1.36568                  
  B35                   1.37056                  
  B36                   1.46812                  
  B37                   1.3756                   
  B38                   1.47783                  
  B39                   1.50263                  
  B40                   1.50071                  
  B41                   1.566                    
  B42                   1.53781                  
  B43                   1.23338                  
  B44                   1.37342                  
  B45                   1.09809                  
  B46                   1.09277                  
  B47                   1.0984                   
  B48                   1.09361                  
  B49                   1.09703                  
  B50                   1.09951                  
  B51                   1.09282                  
  B52                   1.09292                  
  B53                   1.097                    
  B54                   1.0985                   
  B55                   1.08421                  
  B56                   1.08668                  
  B57                   1.09321                  
  B58                   1.09884                  
  B59                   1.09684                  
  B60                   1.09313                  
  B61                   1.09833                  
  B62                   1.09824                  
  B63                   1.09575                  
  B64                   1.09543                  
  B65                   1.09703                  
  B66                   1.09309                  
  B67                   1.08489                  
  B68                   1.08255                  
  B69                   1.08248                  
  B70                   1.08167                  
  B71                   1.08664                  
  B72                   1.08396                  
  B73                   1.08784                  
  B74                   1.08827                  
  B75                   0.98705                  
  B76                   0.99259                  
  A1                  115.51459                  
  A2                   89.99903                  
  A3                   90.00029                  
  A4                   89.99994                  
  A5                   89.99962                  
  A6                  101.94944                  
  A7                  100.63307                  
  A8                  100.4375                   
  A9                  100.12176                  
  A10                 129.70045                  
  A11                 113.42011                  
  A12                 106.13721                  
  A13                  96.00285                  
  A14                 129.63792                  
  A15                 125.11683                  
  A16                 115.87855                  
  A17                 112.75649                  
  A18                 112.98485                  
  A19                 123.76007                  
  A20                 129.32762                  
  A21                 113.93997                  
  A22                 105.84741                  
  A23                  27.92573                  
  A24                 126.01672                  
  A25                 131.01406                  
  A26                 126.89621                  
  A27                 129.04728                  
  A28                 113.76369                  
  A29                 105.87319                  
  A30                  28.28108                  
  A31                 125.94053                  
  A32                 131.11785                  
  A33                 127.0052                   
  A34                 127.48346                  
  A35                 113.19442                  
  A36                 106.11407                  
  A37                 106.23812                  
  A38                 125.00408                  
  A39                 128.92576                  
  A40                 112.5305                   
  A41                 109.8774                   
  A42                 122.73992                  
  A43                 115.59503                  
  A44                 111.46141                  
  A45                 111.56386                  
  A46                 111.52425                  
  A47                 108.54192                  
  A48                 109.03599                  
  A49                 111.33132                  
  A50                 111.34268                  
  A51                 112.87304                  
  A52                 110.74389                  
  A53                 111.44574                  
  A54                 123.62342                  
  A55                 120.17815                  
  A56                 112.79575                  
  A57                 111.52316                  
  A58                 110.73234                  
  A59                 111.15606                  
  A60                 111.61135                  
  A61                 111.88661                  
  A62                 110.05182                  
  A63                 109.42703                  
  A64                 110.45967                  
  A65                 109.946                    
  A66                 147.94648                  
  A67                 145.48787                  
  A68                 147.75979                  
  A69                 146.87328                  
  A70                 120.12231                  
  A71                 123.70971                  
  A72                 116.6159                   
  A73                 116.52013                  
  A74                 115.04889                  
  A75                 116.13079                  
  D1                 -159.714                    
  D2                  110.35291                  
  D3                   20.07987                  
  D4                  -71.07                     
  D5                  -97.75119                  
  D6                   80.7776                   
  D7                  -97.72215                  
  D8                  -83.0713                   
  D9                   96.4525                   
  D10                -173.70608                  
  D11                   0.94379                  
  D12                   7.66033                  
  D13                 178.63358                  
  D14                 176.73731                  
  D15                -109.09904                  
  D16                -122.3566                   
  D17                -146.03219                  
  D18                  35.07085                  
  D19                  80.43125                  
  D20                 178.6391                   
  D21                  -1.41689                  
  D22                -173.71611                  
  D23                -179.20146                  
  D24                -177.16638                  
  D25                 -14.3596                   
  D26                  98.31428                  
  D27                -178.082                    
  D28                   1.02796                  
  D29                 175.15924                  
  D30                -178.88151                  
  D31                 178.71258                  
  D32                 -10.6166                   
  D33                  82.65481                  
  D34                 177.40963                  
  D35                  -2.54371                  
  D36                   2.87072                  
  D37                 178.72752                  
  D38                -177.64634                  
  D39                 -94.                       
  D40                 176.40023                  
  D41                -104.62301                  
  D42                  73.42056                  
  D43                -120.93192                  
  D44                  -0.90056                  
  D45                 118.93077                  
  D46                -161.97279                  
  D47                 -47.15236                  
  D48                  -2.3428                   
  D49                 115.78854                  
  D50                  13.44867                  
  D51                 133.26193                  
  D52                -107.21109                  
  D53                  -2.26989                  
  D54                 179.24434                  
  D55                  14.58566                  
  D56                -106.1841                   
  D57                 134.22465                  
  D58                 179.35361                  
  D59                 -61.26463                  
  D60                  59.52672                  
  D61                 143.1958                   
  D62                  26.04493                  
  D63                 -61.89956                  
  D64                  57.89628                  
  D65                -174.8246                   
  D66                -171.81323                  
  D67                 174.88792                  
  D68                -176.03729                  
  D69                -179.76218                  
  D70                  -1.18609                  
  D71                 170.46281                  
  D72                 165.64678                  
  D73                -178.68388                  
  D74                   4.25956                  
 
 NAtoms=     77 NQM=       77 NQMF=       0 NMMI=      0 NMMIF=      0
                NMic=       0 NMicF=      0.
                    Isotopes and Nuclear Properties:
 (Nuclear quadrupole moments (NQMom) in fm**2, nuclear magnetic moments (NMagM)
  in nuclear magnetons)

  Atom         1           2           3           4           5           6           7           8           9          10
 IAtWgt=          56          16          16          14          14          14          14          12          12          12
 AtmWgt=  55.9349393  15.9949146  15.9949146  14.0030740  14.0030740  14.0030740  14.0030740  12.0000000  12.0000000  12.0000000
 NucSpn=           0           0           0           2           2           2           2           0           0           0
 AtZEff=   0.0000000   0.0000000   0.0000000   0.0000000   0.0000000   0.0000000   0.0000000   0.0000000   0.0000000   0.0000000
 NQMom=    0.0000000   0.0000000   0.0000000   2.0440000   2.0440000   2.0440000   2.0440000   0.0000000   0.0000000   0.0000000
 NMagM=    0.0000000   0.0000000   0.0000000   0.4037610   0.4037610   0.4037610   0.4037610   0.0000000   0.0000000   0.0000000
 AtZNuc=  26.0000000   8.0000000   8.0000000   7.0000000   7.0000000   7.0000000   7.0000000   6.0000000   6.0000000   6.0000000

  Atom        11          12          13          14          15          16          17          18          19          20
 IAtWgt=          12          12          12          12          12          12          12          12          12          16
 AtmWgt=  12.0000000  12.0000000  12.0000000  12.0000000  12.0000000  12.0000000  12.0000000  12.0000000  12.0000000  15.9949146
 NucSpn=           0           0           0           0           0           0           0           0           0           0
 AtZEff=   0.0000000   0.0000000   0.0000000   0.0000000   0.0000000   0.0000000   0.0000000   0.0000000   0.0000000   0.0000000
 NQMom=    0.0000000   0.0000000   0.0000000   0.0000000   0.0000000   0.0000000   0.0000000   0.0000000   0.0000000   0.0000000
 NMagM=    0.0000000   0.0000000   0.0000000   0.0000000   0.0000000   0.0000000   0.0000000   0.0000000   0.0000000   0.0000000
 AtZNuc=   6.0000000   6.0000000   6.0000000   6.0000000   6.0000000   6.0000000   6.0000000   6.0000000   6.0000000   8.0000000

  Atom        21          22          23          24          25          26          27          28          29          30
 IAtWgt=          16          12          12          12          12          12          12          12          12          12
 AtmWgt=  15.9949146  12.0000000  12.0000000  12.0000000  12.0000000  12.0000000  12.0000000  12.0000000  12.0000000  12.0000000
 NucSpn=           0           0           0           0           0           0           0           0           0           0
 AtZEff=   0.0000000   0.0000000   0.0000000   0.0000000   0.0000000   0.0000000   0.0000000   0.0000000   0.0000000   0.0000000
 NQMom=    0.0000000   0.0000000   0.0000000   0.0000000   0.0000000   0.0000000   0.0000000   0.0000000   0.0000000   0.0000000
 NMagM=    0.0000000   0.0000000   0.0000000   0.0000000   0.0000000   0.0000000   0.0000000   0.0000000   0.0000000   0.0000000
 AtZNuc=   8.0000000   6.0000000   6.0000000   6.0000000   6.0000000   6.0000000   6.0000000   6.0000000   6.0000000   6.0000000

  Atom        31          32          33          34          35          36          37          38          39          40
 IAtWgt=          12          12          12          12          12          12          12          12          12          12
 AtmWgt=  12.0000000  12.0000000  12.0000000  12.0000000  12.0000000  12.0000000  12.0000000  12.0000000  12.0000000  12.0000000
 NucSpn=           0           0           0           0           0           0           0           0           0           0
 AtZEff=   0.0000000   0.0000000   0.0000000   0.0000000   0.0000000   0.0000000   0.0000000   0.0000000   0.0000000   0.0000000
 NQMom=    0.0000000   0.0000000   0.0000000   0.0000000   0.0000000   0.0000000   0.0000000   0.0000000   0.0000000   0.0000000
 NMagM=    0.0000000   0.0000000   0.0000000   0.0000000   0.0000000   0.0000000   0.0000000   0.0000000   0.0000000   0.0000000
 AtZNuc=   6.0000000   6.0000000   6.0000000   6.0000000   6.0000000   6.0000000   6.0000000   6.0000000   6.0000000   6.0000000

  Atom        41          42          43          44          45          46          47          48          49          50
 IAtWgt=          12          12          12          16          16           1           1           1           1           1
 AtmWgt=  12.0000000  12.0000000  12.0000000  15.9949146  15.9949146   1.0078250   1.0078250   1.0078250   1.0078250   1.0078250
 NucSpn=           0           0           0           0           0           1           1           1           1           1
 AtZEff=   0.0000000   0.0000000   0.0000000   0.0000000   0.0000000   0.0000000   0.0000000   0.0000000   0.0000000   0.0000000
 NQMom=    0.0000000   0.0000000   0.0000000   0.0000000   0.0000000   0.0000000   0.0000000   0.0000000   0.0000000   0.0000000
 NMagM=    0.0000000   0.0000000   0.0000000   0.0000000   0.0000000   2.7928460   2.7928460   2.7928460   2.7928460   2.7928460
 AtZNuc=   6.0000000   6.0000000   6.0000000   8.0000000   8.0000000   1.0000000   1.0000000   1.0000000   1.0000000   1.0000000

  Atom        51          52          53          54          55          56          57          58          59          60
 IAtWgt=           1           1           1           1           1           1           1           1           1           1
 AtmWgt=   1.0078250   1.0078250   1.0078250   1.0078250   1.0078250   1.0078250   1.0078250   1.0078250   1.0078250   1.0078250
 NucSpn=           1           1           1           1           1           1           1           1           1           1
 AtZEff=   0.0000000   0.0000000   0.0000000   0.0000000   0.0000000   0.0000000   0.0000000   0.0000000   0.0000000   0.0000000
 NQMom=    0.0000000   0.0000000   0.0000000   0.0000000   0.0000000   0.0000000   0.0000000   0.0000000   0.0000000   0.0000000
 NMagM=    2.7928460   2.7928460   2.7928460   2.7928460   2.7928460   2.7928460   2.7928460   2.7928460   2.7928460   2.7928460
 AtZNuc=   1.0000000   1.0000000   1.0000000   1.0000000   1.0000000   1.0000000   1.0000000   1.0000000   1.0000000   1.0000000

  Atom        61          62          63          64          65          66          67          68          69          70
 IAtWgt=           1           1           1           1           1           1           1           1           1           1
 AtmWgt=   1.0078250   1.0078250   1.0078250   1.0078250   1.0078250   1.0078250   1.0078250   1.0078250   1.0078250   1.0078250
 NucSpn=           1           1           1           1           1           1           1           1           1           1
 AtZEff=   0.0000000   0.0000000   0.0000000   0.0000000   0.0000000   0.0000000   0.0000000   0.0000000   0.0000000   0.0000000
 NQMom=    0.0000000   0.0000000   0.0000000   0.0000000   0.0000000   0.0000000   0.0000000   0.0000000   0.0000000   0.0000000
 NMagM=    2.7928460   2.7928460   2.7928460   2.7928460   2.7928460   2.7928460   2.7928460   2.7928460   2.7928460   2.7928460
 AtZNuc=   1.0000000   1.0000000   1.0000000   1.0000000   1.0000000   1.0000000   1.0000000   1.0000000   1.0000000   1.0000000

  Atom        71          72          73          74          75          76          77
 IAtWgt=           1           1           1           1           1           1           1
 AtmWgt=   1.0078250   1.0078250   1.0078250   1.0078250   1.0078250   1.0078250   1.0078250
 NucSpn=           1           1           1           1           1           1           1
 AtZEff=   0.0000000   0.0000000   0.0000000   0.0000000   0.0000000   0.0000000   0.0000000
 NQMom=    0.0000000   0.0000000   0.0000000   0.0000000   0.0000000   0.0000000   0.0000000
 NMagM=    2.7928460   2.7928460   2.7928460   2.7928460   2.7928460   2.7928460   2.7928460
 AtZNuc=   1.0000000   1.0000000   1.0000000   1.0000000   1.0000000   1.0000000   1.0000000
 Leave Link  101 at Mon Feb 29 09:22:56 2016, MaxMem=  2147483648 cpu:         2.6
 (Enter /nas02/apps/gaussian-09d01/em64t/g09/l103.exe)

 GradGradGradGradGradGradGradGradGradGradGradGradGradGradGradGradGradGrad
 Berny optimization.
 Initialization pass.
                       ----------------------------
                       !    Initial Parameters    !
                       ! (Angstroms and Degrees)  !
 ----------------------                            ----------------------
 !      Name          Value   Derivative information (Atomic Units)     !
 ------------------------------------------------------------------------
 !       B1          1.8267   calculate D2E/DX2 analytically            !
 !       B2          1.2165   calculate D2E/DX2 analytically            !
 !       B3          1.95     calculate D2E/DX2 analytically            !
 !       B4          1.9499   calculate D2E/DX2 analytically            !
 !       B5          1.9499   calculate D2E/DX2 analytically            !
 !       B6          1.95     calculate D2E/DX2 analytically            !
 !       B7          2.4614   calculate D2E/DX2 analytically            !
 !       B8          2.4726   calculate D2E/DX2 analytically            !
 !       B9          2.4661   calculate D2E/DX2 analytically            !
 !       B10         2.4582   calculate D2E/DX2 analytically            !
 !       B11         1.3641   calculate D2E/DX2 analytically            !
 !       B12         1.4774   calculate D2E/DX2 analytically            !
 !       B13         1.3709   calculate D2E/DX2 analytically            !
 !       B14         1.3567   calculate D2E/DX2 analytically            !
 !       B15         1.5002   calculate D2E/DX2 analytically            !
 !       B16         1.5097   calculate D2E/DX2 analytically            !
 !       B17         1.5661   calculate D2E/DX2 analytically            !
 !       B18         1.5177   calculate D2E/DX2 analytically            !
 !       B19         1.3522   calculate D2E/DX2 analytically            !
 !       B20         1.2548   calculate D2E/DX2 analytically            !
 !       B21         1.3785   calculate D2E/DX2 analytically            !
 !       B22         1.4511   calculate D2E/DX2 analytically            !
 !       B23         1.3916   calculate D2E/DX2 analytically            !
 !       B24         1.361    calculate D2E/DX2 analytically            !
 !       B25         1.5031   calculate D2E/DX2 analytically            !
 !       B26         1.4488   calculate D2E/DX2 analytically            !
 !       B27         1.3655   calculate D2E/DX2 analytically            !
 !       B28         1.376    calculate D2E/DX2 analytically            !
 !       B29         1.4531   calculate D2E/DX2 analytically            !
 !       B30         1.3923   calculate D2E/DX2 analytically            !
 !       B31         1.3609   calculate D2E/DX2 analytically            !
 !       B32         1.5025   calculate D2E/DX2 analytically            !
 !       B33         1.4485   calculate D2E/DX2 analytically            !
 !       B34         1.3657   calculate D2E/DX2 analytically            !
 !       B35         1.3706   calculate D2E/DX2 analytically            !
 !       B36         1.4681   calculate D2E/DX2 analytically            !
 !       B37         1.3756   calculate D2E/DX2 analytically            !
 !       B38         1.4778   calculate D2E/DX2 analytically            !
 !       B39         1.5026   calculate D2E/DX2 analytically            !
 !       B40         1.5007   calculate D2E/DX2 analytically            !
 !       B41         1.566    calculate D2E/DX2 analytically            !
 !       B42         1.5378   calculate D2E/DX2 analytically            !
 !       B43         1.2334   calculate D2E/DX2 analytically            !
 !       B44         1.3734   calculate D2E/DX2 analytically            !
 !       B45         1.0981   calculate D2E/DX2 analytically            !
 !       B46         1.0928   calculate D2E/DX2 analytically            !
 !       B47         1.0984   calculate D2E/DX2 analytically            !
 !       B48         1.0936   calculate D2E/DX2 analytically            !
 !       B49         1.097    calculate D2E/DX2 analytically            !
 !       B50         1.0995   calculate D2E/DX2 analytically            !
 !       B51         1.0928   calculate D2E/DX2 analytically            !
 !       B52         1.0929   calculate D2E/DX2 analytically            !
 !       B53         1.097    calculate D2E/DX2 analytically            !
 !       B54         1.0985   calculate D2E/DX2 analytically            !
 !       B55         1.0842   calculate D2E/DX2 analytically            !
 !       B56         1.0867   calculate D2E/DX2 analytically            !
 !       B57         1.0932   calculate D2E/DX2 analytically            !
 !       B58         1.0988   calculate D2E/DX2 analytically            !
 !       B59         1.0968   calculate D2E/DX2 analytically            !
 !       B60         1.0931   calculate D2E/DX2 analytically            !
 !       B61         1.0983   calculate D2E/DX2 analytically            !
 !       B62         1.0982   calculate D2E/DX2 analytically            !
 !       B63         1.0957   calculate D2E/DX2 analytically            !
 !       B64         1.0954   calculate D2E/DX2 analytically            !
 !       B65         1.097    calculate D2E/DX2 analytically            !
 !       B66         1.0931   calculate D2E/DX2 analytically            !
 !       B67         1.0849   calculate D2E/DX2 analytically            !
 !       B68         1.0826   calculate D2E/DX2 analytically            !
 !       B69         1.0825   calculate D2E/DX2 analytically            !
 !       B70         1.0817   calculate D2E/DX2 analytically            !
 !       B71         1.0866   calculate D2E/DX2 analytically            !
 !       B72         1.084    calculate D2E/DX2 analytically            !
 !       B73         1.0878   calculate D2E/DX2 analytically            !
 !       B74         1.0883   calculate D2E/DX2 analytically            !
 !       B75         0.987    calculate D2E/DX2 analytically            !
 !       B76         0.9926   calculate D2E/DX2 analytically            !
 !       A1        115.5146   calculate D2E/DX2 analytically            !
 !       A2         89.999    calculate D2E/DX2 analytically            !
 !       A3         90.0003   calculate D2E/DX2 analytically            !
 !       A4         89.9999   calculate D2E/DX2 analytically            !
 !       A5         89.9996   calculate D2E/DX2 analytically            !
 !       A6        101.9494   calculate D2E/DX2 analytically            !
 !       A7        100.6331   calculate D2E/DX2 analytically            !
 !       A8        100.4375   calculate D2E/DX2 analytically            !
 !       A9        100.1218   calculate D2E/DX2 analytically            !
 !       A10       129.7004   calculate D2E/DX2 analytically            !
 !       A11       113.4201   calculate D2E/DX2 analytically            !
 !       A12       106.1372   calculate D2E/DX2 analytically            !
 !       A13        96.0028   calculate D2E/DX2 analytically            !
 !       A14       129.6379   calculate D2E/DX2 analytically            !
 !       A15       125.1168   calculate D2E/DX2 analytically            !
 !       A16       115.8786   calculate D2E/DX2 analytically            !
 !       A17       112.7565   calculate D2E/DX2 analytically            !
 !       A18       112.9849   calculate D2E/DX2 analytically            !
 !       A19       123.7601   calculate D2E/DX2 analytically            !
 !       A20       129.3276   calculate D2E/DX2 analytically            !
 !       A21       113.94     calculate D2E/DX2 analytically            !
 !       A22       105.8474   calculate D2E/DX2 analytically            !
 !       A23        27.9257   calculate D2E/DX2 analytically            !
 !       A24       126.0167   calculate D2E/DX2 analytically            !
 !       A25       131.0141   calculate D2E/DX2 analytically            !
 !       A26       126.8962   calculate D2E/DX2 analytically            !
 !       A27       129.0473   calculate D2E/DX2 analytically            !
 !       A28       113.7637   calculate D2E/DX2 analytically            !
 !       A29       105.8732   calculate D2E/DX2 analytically            !
 !       A30        28.2811   calculate D2E/DX2 analytically            !
 !       A31       125.9405   calculate D2E/DX2 analytically            !
 !       A32       131.1179   calculate D2E/DX2 analytically            !
 !       A33       127.0052   calculate D2E/DX2 analytically            !
 !       A34       127.4835   calculate D2E/DX2 analytically            !
 !       A35       113.1944   calculate D2E/DX2 analytically            !
 !       A36       106.1141   calculate D2E/DX2 analytically            !
 !       A37       106.2381   calculate D2E/DX2 analytically            !
 !       A38       125.0041   calculate D2E/DX2 analytically            !
 !       A39       128.9258   calculate D2E/DX2 analytically            !
 !       A40       112.5305   calculate D2E/DX2 analytically            !
 !       A41       109.8774   calculate D2E/DX2 analytically            !
 !       A42       122.7399   calculate D2E/DX2 analytically            !
 !       A43       115.595    calculate D2E/DX2 analytically            !
 !       A44       111.4614   calculate D2E/DX2 analytically            !
 !       A45       111.5639   calculate D2E/DX2 analytically            !
 !       A46       111.5242   calculate D2E/DX2 analytically            !
 !       A47       108.5419   calculate D2E/DX2 analytically            !
 !       A48       109.036    calculate D2E/DX2 analytically            !
 !       A49       111.3313   calculate D2E/DX2 analytically            !
 !       A50       111.3427   calculate D2E/DX2 analytically            !
 !       A51       112.873    calculate D2E/DX2 analytically            !
 !       A52       110.7439   calculate D2E/DX2 analytically            !
 !       A53       111.4457   calculate D2E/DX2 analytically            !
 !       A54       123.6234   calculate D2E/DX2 analytically            !
 !       A55       120.1782   calculate D2E/DX2 analytically            !
 !       A56       112.7957   calculate D2E/DX2 analytically            !
 !       A57       111.5232   calculate D2E/DX2 analytically            !
 !       A58       110.7323   calculate D2E/DX2 analytically            !
 !       A59       111.1561   calculate D2E/DX2 analytically            !
 !       A60       111.6113   calculate D2E/DX2 analytically            !
 !       A61       111.8866   calculate D2E/DX2 analytically            !
 !       A62       110.0518   calculate D2E/DX2 analytically            !
 !       A63       109.427    calculate D2E/DX2 analytically            !
 !       A64       110.4597   calculate D2E/DX2 analytically            !
 !       A65       109.946    calculate D2E/DX2 analytically            !
 !       A66       147.9465   calculate D2E/DX2 analytically            !
 !       A67       145.4879   calculate D2E/DX2 analytically            !
 !       A68       147.7598   calculate D2E/DX2 analytically            !
 !       A69       146.8733   calculate D2E/DX2 analytically            !
 !       A70       120.1223   calculate D2E/DX2 analytically            !
 !       A71       123.7097   calculate D2E/DX2 analytically            !
 !       A72       116.6159   calculate D2E/DX2 analytically            !
 !       A73       116.5201   calculate D2E/DX2 analytically            !
 !       A74       115.0489   calculate D2E/DX2 analytically            !
 !       A75       116.1308   calculate D2E/DX2 analytically            !
 !       D1       -159.714    calculate D2E/DX2 analytically            !
 !       D2        110.3529   calculate D2E/DX2 analytically            !
 !       D3         20.0799   calculate D2E/DX2 analytically            !
 !       D4        -71.07     calculate D2E/DX2 analytically            !
 !       D5        -97.7512   calculate D2E/DX2 analytically            !
 !       D6         80.7776   calculate D2E/DX2 analytically            !
 !       D7        -97.7222   calculate D2E/DX2 analytically            !
 !       D8        -83.0713   calculate D2E/DX2 analytically            !
 !       D9         96.4525   calculate D2E/DX2 analytically            !
 !       D10      -173.7061   calculate D2E/DX2 analytically            !
 !       D11         0.9438   calculate D2E/DX2 analytically            !
 !       D12         7.6603   calculate D2E/DX2 analytically            !
 !       D13       178.6336   calculate D2E/DX2 analytically            !
 !       D14       176.7373   calculate D2E/DX2 analytically            !
 !       D15      -109.099    calculate D2E/DX2 analytically            !
 !       D16      -122.3566   calculate D2E/DX2 analytically            !
 !       D17      -146.0322   calculate D2E/DX2 analytically            !
 !       D18        35.0709   calculate D2E/DX2 analytically            !
 !       D19        80.4312   calculate D2E/DX2 analytically            !
 !       D20       178.6391   calculate D2E/DX2 analytically            !
 !       D21        -1.4169   calculate D2E/DX2 analytically            !
 !       D22      -173.7161   calculate D2E/DX2 analytically            !
 !       D23      -179.2015   calculate D2E/DX2 analytically            !
 !       D24      -177.1664   calculate D2E/DX2 analytically            !
 !       D25       -14.3596   calculate D2E/DX2 analytically            !
 !       D26        98.3143   calculate D2E/DX2 analytically            !
 !       D27      -178.082    calculate D2E/DX2 analytically            !
 !       D28         1.028    calculate D2E/DX2 analytically            !
 !       D29       175.1592   calculate D2E/DX2 analytically            !
 !       D30      -178.8815   calculate D2E/DX2 analytically            !
 !       D31       178.7126   calculate D2E/DX2 analytically            !
 !       D32       -10.6166   calculate D2E/DX2 analytically            !
 !       D33        82.6548   calculate D2E/DX2 analytically            !
 !       D34       177.4096   calculate D2E/DX2 analytically            !
 !       D35        -2.5437   calculate D2E/DX2 analytically            !
 !       D36         2.8707   calculate D2E/DX2 analytically            !
 !       D37       178.7275   calculate D2E/DX2 analytically            !
 !       D38      -177.6463   calculate D2E/DX2 analytically            !
 !       D39       -94.0      calculate D2E/DX2 analytically            !
 !       D40       176.4002   calculate D2E/DX2 analytically            !
 !       D41      -104.623    calculate D2E/DX2 analytically            !
 !       D42        73.4206   calculate D2E/DX2 analytically            !
 !       D43      -120.9319   calculate D2E/DX2 analytically            !
 !       D44        -0.9006   calculate D2E/DX2 analytically            !
 !       D45       118.9308   calculate D2E/DX2 analytically            !
 !       D46      -161.9728   calculate D2E/DX2 analytically            !
 !       D47       -47.1524   calculate D2E/DX2 analytically            !
 !       D48        -2.3428   calculate D2E/DX2 analytically            !
 !       D49       115.7885   calculate D2E/DX2 analytically            !
 !       D50        13.4487   calculate D2E/DX2 analytically            !
 !       D51       133.2619   calculate D2E/DX2 analytically            !
 !       D52      -107.2111   calculate D2E/DX2 analytically            !
 !       D53        -2.2699   calculate D2E/DX2 analytically            !
 !       D54       179.2443   calculate D2E/DX2 analytically            !
 !       D55        14.5857   calculate D2E/DX2 analytically            !
 !       D56      -106.1841   calculate D2E/DX2 analytically            !
 !       D57       134.2247   calculate D2E/DX2 analytically            !
 !       D58       179.3536   calculate D2E/DX2 analytically            !
 !       D59       -61.2646   calculate D2E/DX2 analytically            !
 !       D60        59.5267   calculate D2E/DX2 analytically            !
 !       D61       143.1958   calculate D2E/DX2 analytically            !
 !       D62        26.0449   calculate D2E/DX2 analytically            !
 !       D63       -61.8996   calculate D2E/DX2 analytically            !
 !       D64        57.8963   calculate D2E/DX2 analytically            !
 !       D65      -174.8246   calculate D2E/DX2 analytically            !
 !       D66      -171.8132   calculate D2E/DX2 analytically            !
 !       D67       174.8879   calculate D2E/DX2 analytically            !
 !       D68      -176.0373   calculate D2E/DX2 analytically            !
 !       D69      -179.7622   calculate D2E/DX2 analytically            !
 !       D70        -1.1861   calculate D2E/DX2 analytically            !
 !       D71       170.4628   calculate D2E/DX2 analytically            !
 !       D72       165.6468   calculate D2E/DX2 analytically            !
 !       D73      -178.6839   calculate D2E/DX2 analytically            !
 !       D74         4.2596   calculate D2E/DX2 analytically            !
 ------------------------------------------------------------------------
 Trust Radius=3.00D-01 FncErr=1.00D-07 GrdErr=1.00D-07
 Number of steps in this run=      2 maximum allowed number of steps=      2.
 GradGradGradGradGradGradGradGradGradGradGradGradGradGradGradGradGradGrad

 Leave Link  103 at Mon Feb 29 09:22:57 2016, MaxMem=  2147483648 cpu:         0.1
 (Enter /nas02/apps/gaussian-09d01/em64t/g09/l202.exe)
 Stoichiometry    C34H32FeN4O6(2+)
 Framework group  C1[X(C34H32FeN4O6)]
 Deg. of freedom   225
 Full point group                 C1      NOp   1
 Largest Abelian subgroup         C1      NOp   1
 Largest concise Abelian subgroup C1      NOp   1
                         Standard orientation:                         
 ---------------------------------------------------------------------
 Center     Atomic      Atomic             Coordinates (Angstroms)
 Number     Number       Type             X           Y           Z
 ---------------------------------------------------------------------
      1         26           0        1.070997   -0.054692   -0.075558
      2          8           0        1.154229    0.062722    1.745478
      3          8           0        1.546144    1.127381    2.184552
      4          7           0       -0.178350   -1.544006    0.077604
      5          7           0        2.564049   -1.308859   -0.062944
      6          7           0        2.314947    1.439103   -0.228726
      7          7           0       -0.452685    1.162162   -0.084362
      8          6           0       -2.350786   -0.398860   -0.222754
      9          6           0        1.392108   -3.407553    0.516624
     10          6           0        4.433262    0.216620   -0.573645
     11          6           0        0.757144    3.325132    0.013705
     12          6           0       -1.541339   -1.547263    0.021808
     13          6           0       -2.138439   -2.863393    0.328220
     14          6           0       -1.090141   -3.702181    0.605236
     15          6           0        0.137495   -2.899366    0.425207
     16          6           0       -1.101307   -5.147559    1.007113
     17          6           0       -3.618932   -3.147382    0.410728
     18          6           0       -4.371722   -3.254593   -0.958395
     19          6           0       -5.516636   -2.265496   -1.077870
     20          8           0       -6.560199   -2.749132   -1.788868
     21          8           0       -5.493957   -1.110155   -0.588716
     22          6           0        2.566427   -2.661634    0.201969
     23          6           0        3.873247   -3.281889    0.086899
     24          6           0        4.742257   -2.267567   -0.303742
     25          6           0        3.917474   -1.025330   -0.364473
     26          6           0        4.182500   -4.737526    0.298860
     27          6           0        6.154603   -2.297038   -0.625507
     28          6           0        7.035291   -3.305885   -0.358764
     29          6           0        3.673799    1.416971   -0.444420
     30          6           0        4.286117    2.734708   -0.457695
     31          6           0        3.254007    3.636682   -0.213548
     32          6           0        2.013133    2.816886   -0.113176
     33          6           0        5.740730    3.028935   -0.692581
     34          6           0        3.259980    5.079649   -0.087176
     35          6           0        4.353547    5.891372    0.014328
     36          6           0       -0.426709    2.531562   -0.034361
     37          6           0       -1.760690    3.138688   -0.119566
     38          6           0       -2.644191    2.097430   -0.285388
     39          6           0       -1.839546    0.859293   -0.225959
     40          6           0       -2.041612    4.613739   -0.062921
     41          6           0       -4.131937    2.144522   -0.476477
     42          6           0       -4.915109    1.992650    0.871090
     43          6           0       -6.424828    2.139165    0.617817
     44          8           0       -7.055542    3.156366    0.915697
     45          8           0       -7.028144    1.073908   -0.004695
     46          1           0       -0.614466   -5.297877    1.979837
     47          1           0       -2.120250   -5.533821    1.088918
     48          1           0       -0.574671   -5.773695    0.274242
     49          1           0       -3.763391   -4.085048    0.954702
     50          1           0       -4.098710   -2.371391    1.019922
     51          1           0       -3.695073   -3.060896   -1.803107
     52          1           0       -4.770965   -4.259728   -1.115118
     53          1           0        3.286271   -5.362343    0.328126
     54          1           0        4.813481   -5.122720   -0.511631
     55          1           0        4.722221   -4.900315    1.241674
     56          1           0        6.767192   -4.211934    0.172944
     57          1           0        8.075175   -3.217548   -0.661609
     58          1           0        6.283793    2.175768   -1.107658
     59          1           0        6.249058    3.317407    0.237921
     60          1           0        5.859775    3.856564   -1.402455
     61          1           0       -3.111689    4.815517   -0.158626
     62          1           0       -1.716257    5.051175    0.890557
     63          1           0       -1.534711    5.158347   -0.870749
     64          1           0       -4.445522    1.363419   -1.178053
     65          1           0       -4.411617    3.104557   -0.923783
     66          1           0       -4.702103    1.019656    1.330847
     67          1           0       -4.614981    2.779851    1.567570
     68          1           0       -3.422231   -0.537131   -0.322128
     69          1           0        1.509220   -4.449020    0.787836
     70          1           0        0.621814    4.395735    0.098940
     71          1           0        5.491288    0.317299   -0.774784
     72          1           0        4.227721    6.966558    0.108773
     73          1           0        5.374168    5.526589    0.029641
     74          1           0        2.289478    5.569900   -0.052976
     75          1           0        6.555599   -1.422143   -1.133535
     76          1           0       -7.314355   -2.122630   -1.902910
     77          1           0       -6.452347    0.283433   -0.174543
 ---------------------------------------------------------------------
 Rotational constants (GHZ):      0.0967828      0.0518567      0.0352894
 Leave Link  202 at Mon Feb 29 09:22:57 2016, MaxMem=  2147483648 cpu:         0.0
 (Enter /nas02/apps/gaussian-09d01/em64t/g09/l301.exe)
 Standard basis: LANL2DZ (5D, 7F)
 Ernie: Thresh=  0.10000D-02 Tol=  0.10000D-05 Strict=F.
 Ernie:  1 primitive shells out of 806 were deleted.
 There are   484 symmetry adapted cartesian basis functions of A   symmetry.
 There are   482 symmetry adapted basis functions of A   symmetry.
   482 basis functions,  1280 primitive gaussians,   484 cartesian basis functions
   163 alpha electrons      163 beta electrons
       nuclear repulsion energy      5859.4218682159 Hartrees.
 IExCor=  402 DFT=T Ex+Corr=B3LYP ExCW=0 ScaHFX=  0.200000
 ScaDFX=  0.800000  0.720000  1.000000  0.810000 ScalE2=  1.000000  1.000000
 IRadAn=      0 IRanWt=     -1 IRanGd=            0 ICorTp=0 IEmpDi=  4
 NAtoms=   77 NActive=   77 NUniq=   77 SFac= 1.00D+00 NAtFMM=   60 NAOKFM=T Big=T
 Integral buffers will be    131072 words long.
 Raffenetti 2 integral format.
 Two-electron integral symmetry is turned on.
 Leave Link  301 at Mon Feb 29 09:22:57 2016, MaxMem=  2147483648 cpu:         0.6
 (Enter /nas02/apps/gaussian-09d01/em64t/g09/l302.exe)
 NPDir=0 NMtPBC=     1 NCelOv=     1 NCel=       1 NClECP=     1 NCelD=      1
         NCelK=      1 NCelE2=     1 NClLst=     1 CellRange=     0.0.
 One-electron integrals computed using PRISM.
   1 Symmetry operations used in ECPInt.
 ECPInt:  NShTT=   42778 NPrTT=  325758 LenC2=   34816 LenP2D=  133209.
 LDataN:  DoStor=T MaxTD1= 4 Len=   56
 NBasis=   482 RedAO= T EigKep=  4.22D-04  NBF=   482
 NBsUse=   482 1.00D-06 EigRej= -1.00D+00 NBFU=   482
 Precomputing XC quadrature grid using
 IXCGrd= 4 IRadAn=           0 IRanWt=          -1 IRanGd=           0 AccXCQ= 0.00D+00.
 Generated NRdTot=       0 NPtTot=           0 NUsed=           0 NTot=          32
 NSgBfM=   468   469   469   469   469 MxSgAt=    77 MxSgA2=    77.
 Leave Link  302 at Mon Feb 29 09:22:59 2016, MaxMem=  2147483648 cpu:        16.7
 (Enter /nas02/apps/gaussian-09d01/em64t/g09/l303.exe)
 DipDrv:  MaxL=1.
 Leave Link  303 at Mon Feb 29 09:22:59 2016, MaxMem=  2147483648 cpu:         1.4
 (Enter /nas02/apps/gaussian-09d01/em64t/g09/l401.exe)
 Initial guess from the checkpoint file:  "MBO_L_0.chk"
 B after Tr=     2.023882   -0.102295   -0.142654
         Rot=    0.817034    0.013189   -0.037207   -0.575236 Ang=  70.42 deg.
 Guess basis will be translated and rotated to current coordinates.
 JPrj=2 DoOrth=T DoCkMO=T.
 Leave Link  401 at Mon Feb 29 09:23:01 2016, MaxMem=  2147483648 cpu:         8.7
 (Enter /nas02/apps/gaussian-09d01/em64t/g09/l502.exe)
 Closed shell SCF:
 Using DIIS extrapolation, IDIIS=  1040.
 Integral symmetry usage will be decided dynamically.
 IVT=      729022 IEndB=      729022 NGot=  2147483648 MDV=  2147006007
 LenX=  2147006007 LenY=  2146771267
 Requested convergence on RMS density matrix=1.00D-08 within 128 cycles.
 Requested convergence on MAX density matrix=1.00D-06.
 Requested convergence on             energy=1.00D-06.
 No special actions if energy rises.
 Fock matrices will be formed incrementally for  20 cycles.

 Cycle   1  Pass 1  IDiag  1:
 FoFJK:  IHMeth= 1 ICntrl=       0 DoSepK=F KAlg= 0 I1Cent=   0 FoldK=F
 IRaf= 990000000 NMat=   1 IRICut=       1 DoRegI=T DoRafI=F ISym2E= 0.
 FoFCou: FMM=T IPFlag=           0 FMFlag=      100000 FMFlg1=        2001
         NFxFlg=           0 DoJE=F BraDBF=F KetDBF=F FulRan=T
         wScrn=  0.000000 ICntrl=       0 IOpCl=  0 I1Cent=           0 NGrid=           0
         NMat0=    1 NMatS0=      1 NMatT0=    0 NMatD0=    1 NMtDS0=    0 NMtDT0=    0
 Symmetry not used in FoFCou.
 FMM levels:  10  Number of levels for PrismC:   9
 E= -2107.75298364475    
 DIIS: error= 4.36D-04 at cycle   1 NSaved=   1.
 NSaved= 1 IEnMin= 1 EnMin= -2107.75298364475     IErMin= 1 ErrMin= 4.36D-04
 ErrMax= 4.36D-04  0.00D+00 EMaxC= 1.00D-01 BMatC= 2.25D-05 BMatP= 2.25D-05
 IDIUse=3 WtCom= 9.96D-01 WtEn= 4.36D-03
 Coeff-Com:  0.100D+01
 Coeff-En:   0.100D+01
 Coeff:      0.100D+01
 Gap=     0.024 Goal=   None    Shift=    0.000
 RMSDP=2.88D-05 MaxDP=1.84D-03              OVMax= 1.84D-03

 Cycle   2  Pass 1  IDiag  1:
 RMSU=  2.88D-05    CP:  1.00D+00
 E= -2107.75303848209     Delta-E=       -0.000054837337 Rises=F Damp=F
 DIIS: error= 8.59D-05 at cycle   2 NSaved=   2.
 NSaved= 2 IEnMin= 2 EnMin= -2107.75303848209     IErMin= 2 ErrMin= 8.59D-05
 ErrMax= 8.59D-05  0.00D+00 EMaxC= 1.00D-01 BMatC= 8.85D-07 BMatP= 2.25D-05
 IDIUse=1 WtCom= 1.00D+00 WtEn= 0.00D+00
 Coeff-Com: -0.397D-01 0.104D+01
 Coeff:     -0.397D-01 0.104D+01
 Gap=     0.023 Goal=   None    Shift=    0.000
 RMSDP=8.90D-06 MaxDP=6.17D-04 DE=-5.48D-05 OVMax= 2.22D-03

 Cycle   3  Pass 1  IDiag  1:
 RMSU=  8.90D-06    CP:  1.00D+00  1.01D+00
 E= -2107.75303532709     Delta-E=        0.000003154996 Rises=F Damp=F
 DIIS: error= 2.34D-04 at cycle   3 NSaved=   3.
 NSaved= 3 IEnMin= 2 EnMin= -2107.75303848209     IErMin= 2 ErrMin= 8.59D-05
 ErrMax= 2.34D-04  0.00D+00 EMaxC= 1.00D-01 BMatC= 4.79D-06 BMatP= 8.85D-07
 IDIUse=3 WtCom= 3.95D-01 WtEn= 6.05D-01
 Coeff-Com: -0.626D-01 0.767D+00 0.295D+00
 Coeff-En:   0.000D+00 0.774D+00 0.226D+00
 Coeff:     -0.248D-01 0.771D+00 0.253D+00
 Gap=     0.023 Goal=   None    Shift=    0.000
 RMSDP=6.42D-06 MaxDP=4.19D-04 DE= 3.15D-06 OVMax= 1.96D-03

 Cycle   4  Pass 1  IDiag  1:
 RMSU=  2.28D-06    CP:  1.00D+00  1.05D+00  3.37D-01
 E= -2107.75303956609     Delta-E=       -0.000004238995 Rises=F Damp=F
 DIIS: error= 3.31D-05 at cycle   4 NSaved=   4.
 NSaved= 4 IEnMin= 4 EnMin= -2107.75303956609     IErMin= 4 ErrMin= 3.31D-05
 ErrMax= 3.31D-05  0.00D+00 EMaxC= 1.00D-01 BMatC= 1.50D-07 BMatP= 8.85D-07
 IDIUse=1 WtCom= 1.00D+00 WtEn= 0.00D+00
 Coeff-Com: -0.430D-01 0.483D+00 0.168D+00 0.392D+00
 Coeff:     -0.430D-01 0.483D+00 0.168D+00 0.392D+00
 Gap=     0.023 Goal=   None    Shift=    0.000
 RMSDP=1.67D-06 MaxDP=1.98D-04 DE=-4.24D-06 OVMax= 3.68D-04

 Cycle   5  Pass 1  IDiag  1:
 RMSU=  1.35D-06    CP:  1.00D+00  1.05D+00  3.80D-01  6.04D-01
 E= -2107.75303946152     Delta-E=        0.000000104569 Rises=F Damp=F
 DIIS: error= 6.52D-05 at cycle   5 NSaved=   5.
 NSaved= 5 IEnMin= 4 EnMin= -2107.75303956609     IErMin= 4 ErrMin= 3.31D-05
 ErrMax= 6.52D-05  0.00D+00 EMaxC= 1.00D-01 BMatC= 2.92D-07 BMatP= 1.50D-07
 IDIUse=1 WtCom= 1.00D+00 WtEn= 0.00D+00
 Coeff-Com: -0.291D-01 0.314D+00 0.102D+00 0.414D+00 0.200D+00
 Coeff:     -0.291D-01 0.314D+00 0.102D+00 0.414D+00 0.200D+00
 Gap=     0.023 Goal=   None    Shift=    0.000
 RMSDP=1.47D-06 MaxDP=2.87D-04 DE= 1.05D-07 OVMax= 2.57D-04

 Cycle   6  Pass 1  IDiag  1:
 RMSU=  1.06D-06    CP:  1.00D+00  1.05D+00  3.68D-01  6.96D-01  2.71D-01
 E= -2107.75303953706     Delta-E=       -0.000000075539 Rises=F Damp=F
 DIIS: error= 5.30D-05 at cycle   6 NSaved=   6.
 NSaved= 6 IEnMin= 4 EnMin= -2107.75303956609     IErMin= 4 ErrMin= 3.31D-05
 ErrMax= 5.30D-05  0.00D+00 EMaxC= 1.00D-01 BMatC= 2.03D-07 BMatP= 1.50D-07
 IDIUse=1 WtCom= 1.00D+00 WtEn= 0.00D+00
 Coeff-Com: -0.805D-02 0.712D-01 0.139D-01 0.313D+00 0.326D+00 0.284D+00
 Coeff:     -0.805D-02 0.712D-01 0.139D-01 0.313D+00 0.326D+00 0.284D+00
 Gap=     0.023 Goal=   None    Shift=    0.000
 RMSDP=9.50D-07 MaxDP=1.23D-04 DE=-7.55D-08 OVMax= 2.42D-04

 Cycle   7  Pass 1  IDiag  1:
 RMSU=  3.74D-07    CP:  1.00D+00  1.06D+00  3.20D-01  8.05D-01  4.23D-01
                    CP:  3.52D-01
 E= -2107.75303969503     Delta-E=       -0.000000157973 Rises=F Damp=F
 DIIS: error= 4.27D-06 at cycle   7 NSaved=   7.
 NSaved= 7 IEnMin= 7 EnMin= -2107.75303969503     IErMin= 7 ErrMin= 4.27D-06
 ErrMax= 4.27D-06  0.00D+00 EMaxC= 1.00D-01 BMatC= 3.76D-09 BMatP= 1.50D-07
 IDIUse=1 WtCom= 1.00D+00 WtEn= 0.00D+00
 Coeff-Com: -0.152D-02 0.589D-02-0.219D-02 0.151D+00 0.208D+00 0.192D+00
 Coeff-Com:  0.446D+00
 Coeff:     -0.152D-02 0.589D-02-0.219D-02 0.151D+00 0.208D+00 0.192D+00
 Coeff:      0.446D+00
 Gap=     0.023 Goal=   None    Shift=    0.000
 RMSDP=2.91D-07 MaxDP=1.57D-05 DE=-1.58D-07 OVMax= 9.52D-05

 Cycle   8  Pass 1  IDiag  1:
 RMSU=  1.57D-07    CP:  1.00D+00  1.06D+00  3.39D-01  7.66D-01  4.66D-01
                    CP:  4.34D-01  7.03D-01
 E= -2107.75303969919     Delta-E=       -0.000000004156 Rises=F Damp=F
 DIIS: error= 1.42D-06 at cycle   8 NSaved=   8.
 NSaved= 8 IEnMin= 8 EnMin= -2107.75303969919     IErMin= 8 ErrMin= 1.42D-06
 ErrMax= 1.42D-06  0.00D+00 EMaxC= 1.00D-01 BMatC= 4.98D-10 BMatP= 3.76D-09
 IDIUse=1 WtCom= 1.00D+00 WtEn= 0.00D+00
 Coeff-Com:  0.479D-03-0.866D-02-0.241D-02 0.287D-01 0.692D-01 0.520D-01
 Coeff-Com:  0.264D+00 0.597D+00
 Coeff:      0.479D-03-0.866D-02-0.241D-02 0.287D-01 0.692D-01 0.520D-01
 Coeff:      0.264D+00 0.597D+00
 Gap=     0.023 Goal=   None    Shift=    0.000
 RMSDP=1.15D-07 MaxDP=6.93D-06 DE=-4.16D-09 OVMax= 1.50D-05

 Cycle   9  Pass 1  IDiag  1:
 RMSU=  9.19D-08    CP:  1.00D+00  1.06D+00  3.41D-01  7.88D-01  4.65D-01
                    CP:  4.27D-01  7.77D-01  7.80D-01
 E= -2107.75303969977     Delta-E=       -0.000000000588 Rises=F Damp=F
 DIIS: error= 8.18D-07 at cycle   9 NSaved=   9.
 NSaved= 9 IEnMin= 9 EnMin= -2107.75303969977     IErMin= 9 ErrMin= 8.18D-07
 ErrMax= 8.18D-07  0.00D+00 EMaxC= 1.00D-01 BMatC= 1.79D-10 BMatP= 4.98D-10
 IDIUse=1 WtCom= 1.00D+00 WtEn= 0.00D+00
 Coeff-Com:  0.568D-03-0.691D-02-0.126D-02-0.541D-02 0.174D-01-0.449D-03
 Coeff-Com:  0.106D+00 0.404D+00 0.486D+00
 Coeff:      0.568D-03-0.691D-02-0.126D-02-0.541D-02 0.174D-01-0.449D-03
 Coeff:      0.106D+00 0.404D+00 0.486D+00
 Gap=     0.023 Goal=   None    Shift=    0.000
 RMSDP=5.82D-08 MaxDP=4.49D-06 DE=-5.88D-10 OVMax= 6.66D-06

 Cycle  10  Pass 1  IDiag  1:
 RMSU=  4.51D-08    CP:  1.00D+00  1.06D+00  3.40D-01  7.90D-01  4.70D-01
                    CP:  4.37D-01  7.90D-01  9.92D-01  9.96D-01
 E= -2107.75303970030     Delta-E=       -0.000000000521 Rises=F Damp=F
 DIIS: error= 7.28D-07 at cycle  10 NSaved=  10.
 NSaved=10 IEnMin=10 EnMin= -2107.75303970030     IErMin=10 ErrMin= 7.28D-07
 ErrMax= 7.28D-07  0.00D+00 EMaxC= 1.00D-01 BMatC= 8.66D-11 BMatP= 1.79D-10
 IDIUse=1 WtCom= 1.00D+00 WtEn= 0.00D+00
 Coeff-Com:  0.225D-03-0.111D-02 0.284D-03-0.221D-01-0.201D-01-0.360D-01
 Coeff-Com: -0.616D-01 0.490D-02 0.398D+00 0.737D+00
 Coeff:      0.225D-03-0.111D-02 0.284D-03-0.221D-01-0.201D-01-0.360D-01
 Coeff:     -0.616D-01 0.490D-02 0.398D+00 0.737D+00
 Gap=     0.023 Goal=   None    Shift=    0.000
 RMSDP=5.78D-08 MaxDP=6.96D-06 DE=-5.21D-10 OVMax= 9.30D-06

 Cycle  11  Pass 1  IDiag  1:
 RMSU=  2.36D-08    CP:  1.00D+00  1.06D+00  3.40D-01  7.92D-01  4.73D-01
                    CP:  4.46D-01  8.59D-01  1.14D+00  1.41D+00  1.12D+00
 E= -2107.75303970060     Delta-E=       -0.000000000306 Rises=F Damp=F
 DIIS: error= 3.77D-07 at cycle  11 NSaved=  11.
 NSaved=11 IEnMin=11 EnMin= -2107.75303970060     IErMin=11 ErrMin= 3.77D-07
 ErrMax= 3.77D-07  0.00D+00 EMaxC= 1.00D-01 BMatC= 2.57D-11 BMatP= 8.66D-11
 IDIUse=1 WtCom= 1.00D+00 WtEn= 0.00D+00
 Coeff-Com: -0.374D-04 0.160D-02 0.718D-03-0.135D-01-0.166D-01-0.263D-01
 Coeff-Com: -0.734D-01-0.126D+00 0.107D+00 0.475D+00 0.671D+00
 Coeff:     -0.374D-04 0.160D-02 0.718D-03-0.135D-01-0.166D-01-0.263D-01
 Coeff:     -0.734D-01-0.126D+00 0.107D+00 0.475D+00 0.671D+00
 Gap=     0.023 Goal=   None    Shift=    0.000
 RMSDP=3.64D-08 MaxDP=4.72D-06 DE=-3.06D-10 OVMax= 6.16D-06

 Cycle  12  Pass 1  IDiag  1:
 RMSU=  1.37D-08    CP:  1.00D+00  1.06D+00  3.41D-01  7.93D-01  4.75D-01
                    CP:  4.51D-01  8.86D-01  1.25D+00  1.64D+00  1.41D+00
                    CP:  1.26D+00
 E= -2107.75303970073     Delta-E=       -0.000000000126 Rises=F Damp=F
 DIIS: error= 1.92D-07 at cycle  12 NSaved=  12.
 NSaved=12 IEnMin=12 EnMin= -2107.75303970073     IErMin=12 ErrMin= 1.92D-07
 ErrMax= 1.92D-07  0.00D+00 EMaxC= 1.00D-01 BMatC= 1.03D-11 BMatP= 2.57D-11
 IDIUse=1 WtCom= 1.00D+00 WtEn= 0.00D+00
 Coeff-Com: -0.145D-03 0.203D-02 0.531D-03-0.109D-02-0.369D-02-0.682D-02
 Coeff-Com: -0.331D-01-0.114D+00-0.100D+00 0.585D-01 0.570D+00 0.628D+00
 Coeff:     -0.145D-03 0.203D-02 0.531D-03-0.109D-02-0.369D-02-0.682D-02
 Coeff:     -0.331D-01-0.114D+00-0.100D+00 0.585D-01 0.570D+00 0.628D+00
 Gap=     0.023 Goal=   None    Shift=    0.000
 RMSDP=2.83D-08 MaxDP=3.79D-06 DE=-1.26D-10 OVMax= 4.79D-06

 Cycle  13  Pass 1  IDiag  1:
 RMSU=  1.01D-08    CP:  1.00D+00  1.06D+00  3.41D-01  7.94D-01  4.77D-01
                    CP:  4.54D-01  9.05D-01  1.32D+00  1.82D+00  1.66D+00
                    CP:  1.69D+00  1.05D+00
 E= -2107.75303970065     Delta-E=        0.000000000081 Rises=F Damp=F
 DIIS: error= 8.64D-08 at cycle  13 NSaved=  13.
 NSaved=13 IEnMin=12 EnMin= -2107.75303970073     IErMin=13 ErrMin= 8.64D-08
 ErrMax= 8.64D-08  0.00D+00 EMaxC= 1.00D-01 BMatC= 3.03D-12 BMatP= 1.03D-11
 IDIUse=1 WtCom= 1.00D+00 WtEn= 0.00D+00
 Coeff-Com: -0.106D-03 0.113D-02 0.184D-03 0.365D-02 0.265D-02 0.287D-02
 Coeff-Com: -0.171D-02-0.512D-01-0.116D+00-0.105D+00 0.236D+00 0.514D+00
 Coeff-Com:  0.514D+00
 Coeff:     -0.106D-03 0.113D-02 0.184D-03 0.365D-02 0.265D-02 0.287D-02
 Coeff:     -0.171D-02-0.512D-01-0.116D+00-0.105D+00 0.236D+00 0.514D+00
 Coeff:      0.514D+00
 Gap=     0.023 Goal=   None    Shift=    0.000
 RMSDP=1.36D-08 MaxDP=1.82D-06 DE= 8.09D-11 OVMax= 2.27D-06

 Cycle  14  Pass 1  IDiag  1:
 RMSU=  5.55D-09    CP:  1.00D+00  1.06D+00  3.41D-01  7.94D-01  4.77D-01
                    CP:  4.55D-01  9.13D-01  1.35D+00  1.91D+00  1.75D+00
                    CP:  1.91D+00  1.38D+00  1.12D+00
 E= -2107.75303970050     Delta-E=        0.000000000148 Rises=F Damp=F
 DIIS: error= 3.83D-08 at cycle  14 NSaved=  14.
 NSaved=14 IEnMin=12 EnMin= -2107.75303970073     IErMin=14 ErrMin= 3.83D-08
 ErrMax= 3.83D-08  0.00D+00 EMaxC= 1.00D-01 BMatC= 4.33D-13 BMatP= 3.03D-12
 IDIUse=1 WtCom= 1.00D+00 WtEn= 0.00D+00
 Coeff-Com: -0.325D-04 0.250D-03-0.134D-04 0.225D-02 0.197D-02 0.289D-02
 Coeff-Com:  0.507D-02-0.701D-02-0.483D-01-0.667D-01 0.204D-01 0.180D+00
 Coeff-Com:  0.280D+00 0.629D+00
 Coeff:     -0.325D-04 0.250D-03-0.134D-04 0.225D-02 0.197D-02 0.289D-02
 Coeff:      0.507D-02-0.701D-02-0.483D-01-0.667D-01 0.204D-01 0.180D+00
 Coeff:      0.280D+00 0.629D+00
 Gap=     0.023 Goal=   None    Shift=    0.000
 RMSDP=6.88D-09 MaxDP=8.00D-07 DE= 1.48D-10 OVMax= 9.81D-07

 SCF Done:  E(RB3LYP) =  -2107.75303970     A.U. after   14 cycles
            NFock= 14  Conv=0.69D-08     -V/T= 2.0312
 KE= 2.043932722670D+03 PE=-1.656063046253D+04 EE= 6.549522831939D+03
 Leave Link  502 at Mon Feb 29 09:27:42 2016, MaxMem=  2147483648 cpu:      2240.7
 (Enter /nas02/apps/gaussian-09d01/em64t/g09/l801.exe)
 DoSCS=F DFT=T ScalE2(SS,OS)=  1.000000  1.000000
 Range of M.O.s used for correlation:     1   482
 NBasis=   482 NAE=   163 NBE=   163 NFC=     0 NFV=     0
 NROrb=    482 NOA=   163 NOB=   163 NVA=   319 NVB=   319

 **** Warning!!: The largest alpha MO coefficient is  0.11217100D+02


 **** Warning!!: The smallest alpha delta epsilon is  0.23431630D-01

 Leave Link  801 at Mon Feb 29 09:27:42 2016, MaxMem=  2147483648 cpu:         0.2
 (Enter /nas02/apps/gaussian-09d01/em64t/g09/l1101.exe)
 Using compressed storage, NAtomX=    77.
 Will process     78 centers per pass.
   1 Symmetry operations used in ECPInt.
 ECPInt:  NShTT=   42778 NPrTT=  325758 LenC2=   34816 LenP2D=  133209.
 LDataN:  DoStor=T MaxTD1= 5 Len=  102
 Leave Link 1101 at Mon Feb 29 09:27:46 2016, MaxMem=  2147483648 cpu:        27.9
 (Enter /nas02/apps/gaussian-09d01/em64t/g09/l1102.exe)
 Symmetrizing basis deriv contribution to polar:
 IMax=3 JMax=2 DiffMx= 0.00D+00
 Leave Link 1102 at Mon Feb 29 09:27:46 2016, MaxMem=  2147483648 cpu:         1.6
 (Enter /nas02/apps/gaussian-09d01/em64t/g09/l1110.exe)
 Forming Gx(P) for the SCF density, NAtomX=    77.
 Integral derivatives from FoFJK, PRISM(SPDF).
 Do as many integral derivatives as possible in FoFJK.
 G2DrvN: MDV=    2147482928.
 G2DrvN: will do    78 centers at a time, making    1 passes.
 Calling FoFCou, ICntrl=  3107 FMM=T I1Cent=   0 AccDes= 0.00D+00.
 FoFJK:  IHMeth= 1 ICntrl=    3107 DoSepK=F KAlg= 0 I1Cent=   0 FoldK=F
 IRaf=         0 NMat=   1 IRICut=       1 DoRegI=T DoRafI=F ISym2E= 0.
 FoFCou: FMM=T IPFlag=           0 FMFlag=      100000 FMFlg1=        2001
         NFxFlg=           0 DoJE=F BraDBF=F KetDBF=F FulRan=T
         wScrn=  0.000000 ICntrl=    3107 IOpCl=  0 I1Cent=           0 NGrid=           0
         NMat0=    1 NMatS0=      1 NMatT0=    0 NMatD0=    1 NMtDS0=    0 NMtDT0=    0
 Symmetry not used in FoFCou.
 FMM levels:  10  Number of levels for PrismC:   9
 End of G2Drv F.D. properties file   721 does not exist.
 End of G2Drv F.D. properties file   722 does not exist.
 End of G2Drv F.D. properties file   788 does not exist.
 Leave Link 1110 at Mon Feb 29 09:38:21 2016, MaxMem=  2147483648 cpu:      5075.0
 (Enter /nas02/apps/gaussian-09d01/em64t/g09/l1002.exe)
 Minotr:  Closed shell wavefunction.
          IDoAtm=11111111111111111111111111111111111111111111111111
          IDoAtm=111111111111111111111111111
          Direct CPHF calculation.
          Differentiating once with respect to electric field.
                with respect to dipole field.
          Differentiating once with respect to nuclear coordinates.
          Requested convergence is 1.0D-08 RMS, and 1.0D-07 maximum.
          Secondary convergence is 1.0D-12 RMS, and 1.0D-12 maximum.
          NewPWx=T KeepS1=F KeepF1=F KeepIn=T MapXYZ=F SortEE=F KeepMc=T.
          MDV=    2147482392 using IRadAn=       2.
 Generate precomputed XC quadrature information.
          Solving linear equations simultaneously, MaxMat=      72.
 FoF2E skips out because all densities are zero.
 CalDSu exits because no D1Ps are significant.
 FoFJK:  IHMeth= 1 ICntrl=       0 DoSepK=F KAlg= 0 I1Cent=   0 FoldK=F
 IRaf= 990000000 NMat=  72 IRICut=       1 DoRegI=T DoRafI=F ISym2E= 2.
 FoFCou: FMM=T IPFlag=           0 FMFlag=      100000 FMFlg1=        2001
         NFxFlg=           0 DoJE=F BraDBF=F KetDBF=F FulRan=T
         wScrn=  0.000000 ICntrl=       0 IOpCl=  0 I1Cent=           0 NGrid=           0
         NMat0=   72 NMatS0=     72 NMatT0=    0 NMatD0=   72 NMtDS0=    0 NMtDT0=    0
 Symmetry not used in FoFCou.
 FMM levels:  10  Number of levels for PrismC:   9
          There are   234 degrees of freedom in the 1st order CPHF.  IDoFFX=6 NUNeed=     3.
    234 vectors produced by pass  0 Test12= 5.20D-14 1.00D-09 XBig12= 1.49D+04 1.08D+02.
 AX will form    72 AO Fock derivatives at one time.
    231 vectors produced by pass  1 Test12= 5.20D-14 1.00D-09 XBig12= 1.63D+03 8.52D+00.
    231 vectors produced by pass  2 Test12= 5.20D-14 1.00D-09 XBig12= 2.92D+01 1.19D+00.
    231 vectors produced by pass  3 Test12= 5.20D-14 1.00D-09 XBig12= 1.15D-01 4.91D-02.
    231 vectors produced by pass  4 Test12= 5.20D-14 1.00D-09 XBig12= 2.84D-04 1.45D-03.
    161 vectors produced by pass  5 Test12= 5.20D-14 1.00D-09 XBig12= 3.60D-07 4.89D-05.
     55 vectors produced by pass  6 Test12= 5.20D-14 1.00D-09 XBig12= 3.62D-10 2.25D-06.
      3 vectors produced by pass  7 Test12= 5.20D-14 1.00D-09 XBig12= 3.33D-13 5.61D-08.
      2 vectors produced by pass  8 Test12= 5.20D-14 1.00D-09 XBig12= 1.33D-15 1.52D-09.
 InvSVY:  IOpt=1 It=  1 EMax= 2.27D-13
 Solved reduced A of dimension  1379 with   234 vectors.
 FullF1:  Do perturbations    1 to     3.
 Isotropic polarizability for W=    0.000000      764.25 Bohr**3.
 End of Minotr F.D. properties file   721 does not exist.
 End of Minotr F.D. properties file   722 does not exist.
 End of Minotr F.D. properties file   788 does not exist.
 Leave Link 1002 at Mon Feb 29 10:29:16 2016, MaxMem=  2147483648 cpu:     24368.5
 (Enter /nas02/apps/gaussian-09d01/em64t/g09/l601.exe)
 Copying SCF densities to generalized density rwf, IOpCl= 0 IROHF=0.

 **********************************************************************

            Population analysis using the SCF density.

 **********************************************************************

 Orbital symmetries:
       Occupied  (A) (A) (A) (A) (A) (A) (A) (A) (A) (A) (A) (A)
                 (A) (A) (A) (A) (A) (A) (A) (A) (A) (A) (A) (A)
                 (A) (A) (A) (A) (A) (A) (A) (A) (A) (A) (A) (A)
                 (A) (A) (A) (A) (A) (A) (A) (A) (A) (A) (A) (A)
                 (A) (A) (A) (A) (A) (A) (A) (A) (A) (A) (A) (A)
                 (A) (A) (A) (A) (A) (A) (A) (A) (A) (A) (A) (A)
                 (A) (A) (A) (A) (A) (A) (A) (A) (A) (A) (A) (A)
                 (A) (A) (A) (A) (A) (A) (A) (A) (A) (A) (A) (A)
                 (A) (A) (A) (A) (A) (A) (A) (A) (A) (A) (A) (A)
                 (A) (A) (A) (A) (A) (A) (A) (A) (A) (A) (A) (A)
                 (A) (A) (A) (A) (A) (A) (A) (A) (A) (A) (A) (A)
                 (A) (A) (A) (A) (A) (A) (A) (A) (A) (A) (A) (A)
                 (A) (A) (A) (A) (A) (A) (A) (A) (A) (A) (A) (A)
                 (A) (A) (A) (A) (A) (A) (A)
       Virtual   (A) (A) (A) (A) (A) (A) (A) (A) (A) (A) (A) (A)
                 (A) (A) (A) (A) (A) (A) (A) (A) (A) (A) (A) (A)
                 (A) (A) (A) (A) (A) (A) (A) (A) (A) (A) (A) (A)
                 (A) (A) (A) (A) (A) (A) (A) (A) (A) (A) (A) (A)
                 (A) (A) (A) (A) (A) (A) (A) (A) (A) (A) (A) (A)
                 (A) (A) (A) (A) (A) (A) (A) (A) (A) (A) (A) (A)
                 (A) (A) (A) (A) (A) (A) (A) (A) (A) (A) (A) (A)
                 (A) (A) (A) (A) (A) (A) (A) (A) (A) (A) (A) (A)
                 (A) (A) (A) (A) (A) (A) (A) (A) (A) (A) (A) (A)
                 (A) (A) (A) (A) (A) (A) (A) (A) (A) (A) (A) (A)
                 (A) (A) (A) (A) (A) (A) (A) (A) (A) (A) (A) (A)
                 (A) (A) (A) (A) (A) (A) (A) (A) (A) (A) (A) (A)
                 (A) (A) (A) (A) (A) (A) (A) (A) (A) (A) (A) (A)
                 (A) (A) (A) (A) (A) (A) (A) (A) (A) (A) (A) (A)
                 (A) (A) (A) (A) (A) (A) (A) (A) (A) (A) (A) (A)
                 (A) (A) (A) (A) (A) (A) (A) (A) (A) (A) (A) (A)
                 (A) (A) (A) (A) (A) (A) (A) (A) (A) (A) (A) (A)
                 (A) (A) (A) (A) (A) (A) (A) (A) (A) (A) (A) (A)
                 (A) (A) (A) (A) (A) (A) (A) (A) (A) (A) (A) (A)
                 (A) (A) (A) (A) (A) (A) (A) (A) (A) (A) (A) (A)
                 (A) (A) (A) (A) (A) (A) (A) (A) (A) (A) (A) (A)
                 (A) (A) (A) (A) (A) (A) (A) (A) (A) (A) (A) (A)
                 (A) (A) (A) (A) (A) (A) (A) (A) (A) (A) (A) (A)
                 (A) (A) (A) (A) (A) (A) (A) (A) (A) (A) (A) (A)
                 (A) (A) (A) (A) (A) (A) (A) (A) (A) (A) (A) (A)
                 (A) (A) (A) (A) (A) (A) (A) (A) (A) (A) (A) (A)
                 (A) (A) (A) (A) (A) (A) (A)
 The electronic state is 1-A.
 Alpha  occ. eigenvalues --  -19.50504 -19.45159 -19.38674 -19.35197 -19.31284
 Alpha  occ. eigenvalues --  -19.28189 -14.58238 -14.58055 -14.57930 -14.57645
 Alpha  occ. eigenvalues --  -10.55222 -10.48471 -10.48369 -10.48238 -10.48236
 Alpha  occ. eigenvalues --  -10.48161 -10.47435 -10.47261 -10.47116 -10.46993
 Alpha  occ. eigenvalues --  -10.44358 -10.44251 -10.44113 -10.44054 -10.43954
 Alpha  occ. eigenvalues --  -10.43301 -10.43258 -10.43016 -10.42884 -10.42752
 Alpha  occ. eigenvalues --  -10.42430 -10.42187 -10.41666 -10.41382 -10.40797
 Alpha  occ. eigenvalues --  -10.40507 -10.40475 -10.40179 -10.39053 -10.38479
 Alpha  occ. eigenvalues --  -10.38417 -10.38388 -10.37751 -10.37558  -3.72736
 Alpha  occ. eigenvalues --   -2.51410  -2.50378  -2.48972  -1.50033  -1.31769
 Alpha  occ. eigenvalues --   -1.24098  -1.22987  -1.21072  -1.20046  -1.19989
 Alpha  occ. eigenvalues --   -1.18969  -1.16626  -1.06681  -1.04386  -1.04153
 Alpha  occ. eigenvalues --   -1.03895  -1.03557  -1.03455  -1.02887  -1.00689
 Alpha  occ. eigenvalues --   -0.99156  -0.98703  -0.98005  -0.97137  -0.96544
 Alpha  occ. eigenvalues --   -0.94653  -0.92485  -0.91905  -0.91260  -0.89880
 Alpha  occ. eigenvalues --   -0.88966  -0.87920  -0.87728  -0.85109  -0.83228
 Alpha  occ. eigenvalues --   -0.82470  -0.82263  -0.81155  -0.80790  -0.77469
 Alpha  occ. eigenvalues --   -0.77057  -0.76729  -0.76036  -0.76014  -0.74653
 Alpha  occ. eigenvalues --   -0.74505  -0.74209  -0.73628  -0.72492  -0.71813
 Alpha  occ. eigenvalues --   -0.71545  -0.71021  -0.70901  -0.70175  -0.69623
 Alpha  occ. eigenvalues --   -0.68295  -0.67802  -0.67458  -0.67037  -0.66800
 Alpha  occ. eigenvalues --   -0.66025  -0.65869  -0.65686  -0.65391  -0.65267
 Alpha  occ. eigenvalues --   -0.64864  -0.64580  -0.64286  -0.63861  -0.63450
 Alpha  occ. eigenvalues --   -0.63347  -0.62814  -0.62164  -0.61514  -0.61086
 Alpha  occ. eigenvalues --   -0.61013  -0.60930  -0.60629  -0.60580  -0.60329
 Alpha  occ. eigenvalues --   -0.60227  -0.59909  -0.59746  -0.59522  -0.59353
 Alpha  occ. eigenvalues --   -0.58824  -0.58740  -0.58221  -0.57541  -0.57164
 Alpha  occ. eigenvalues --   -0.56994  -0.56650  -0.56234  -0.56106  -0.55548
 Alpha  occ. eigenvalues --   -0.55260  -0.54947  -0.54804  -0.54499  -0.53534
 Alpha  occ. eigenvalues --   -0.53287  -0.52703  -0.52151  -0.51542  -0.51109
 Alpha  occ. eigenvalues --   -0.50282  -0.49217  -0.49064  -0.48703  -0.48480
 Alpha  occ. eigenvalues --   -0.46778  -0.45908  -0.45481  -0.44917  -0.44069
 Alpha  occ. eigenvalues --   -0.43828  -0.43331  -0.41124
 Alpha virt. eigenvalues --   -0.38781  -0.36991  -0.31084  -0.31043  -0.29837
 Alpha virt. eigenvalues --   -0.25872  -0.22830  -0.22301  -0.21935  -0.20963
 Alpha virt. eigenvalues --   -0.19803  -0.16570  -0.16390  -0.16012  -0.15945
 Alpha virt. eigenvalues --   -0.15390  -0.14661  -0.13045  -0.13012  -0.12058
 Alpha virt. eigenvalues --   -0.11691  -0.10621  -0.10265  -0.09626  -0.09450
 Alpha virt. eigenvalues --   -0.09310  -0.08976  -0.08105  -0.07380  -0.07181
 Alpha virt. eigenvalues --   -0.06918  -0.06572  -0.06242  -0.05072  -0.04743
 Alpha virt. eigenvalues --   -0.04453  -0.03958  -0.03733  -0.03686  -0.03533
 Alpha virt. eigenvalues --   -0.03159  -0.02852  -0.02503  -0.02303  -0.01956
 Alpha virt. eigenvalues --   -0.01777  -0.01352  -0.01337  -0.01138  -0.00732
 Alpha virt. eigenvalues --   -0.00448  -0.00045   0.00038   0.00332   0.00739
 Alpha virt. eigenvalues --    0.00937   0.01213   0.01410   0.01852   0.01917
 Alpha virt. eigenvalues --    0.02119   0.02579   0.02758   0.02896   0.03032
 Alpha virt. eigenvalues --    0.03533   0.03645   0.04207   0.04491   0.04769
 Alpha virt. eigenvalues --    0.05198   0.05444   0.05527   0.05644   0.05872
 Alpha virt. eigenvalues --    0.06269   0.06640   0.06862   0.06985   0.07128
 Alpha virt. eigenvalues --    0.07447   0.07909   0.08073   0.08200   0.08545
 Alpha virt. eigenvalues --    0.09027   0.09096   0.09260   0.09706   0.09712
 Alpha virt. eigenvalues --    0.10464   0.10638   0.10890   0.11486   0.11908
 Alpha virt. eigenvalues --    0.12286   0.12384   0.12860   0.13117   0.13302
 Alpha virt. eigenvalues --    0.13554   0.13746   0.13935   0.14028   0.14329
[...]
 01603,0.00003415,0.00004381,0.00000466,0.00000286,-0.00000057,0.000000
 93,-0.00000111,0.00000429,-0.00000125,-0.00000115,0.00000476,0.0000010
 7,-0.00000404,-0.00000081,0.00000337,-0.00000006,-0.00000153,0.0000019
 1,-0.00000008,0.00001204,0.00000477,-0.00000064,-0.00000125,0.00000047
 ,-0.00000588,0.00000302,-0.00000144,-0.00000705,-0.00000631,-0.0000055
 1,-0.00000024,0.00000309,-0.00000973,-0.00087777,-0.00061831,0.0009206
 2,0.00000429,0.00000658,0.00000152,-0.00000887,0.00000021,0.00000472,-
 0.00000137,0.00000258,0.00001481,-0.11997836,0.01175442,0.07772606,0.0
 0001892,0.00006453,0.00003825,-0.00006954,-0.00000106,-0.00005793,0.00
 005918,-0.00001335,0.00003600,-0.00011152,-0.00003913,0.00001983,-0.00
 006185,-0.00001261,0.00000724,0.00001538,-0.00005523,-0.00001396,-0.00
 015714,-0.00003077,-0.00003139,-0.00006586,-0.00005111,0.00004695,0.00
 003601,-0.00007097,-0.00000041,0.00001927,0.00002518,0.00000473,-0.000
 00724,0.00000267,-0.00001149,0.00016085,0.00013770,-0.00002128,0.00006
 407,-0.00008018,-0.00004121,0.00002663,0.00009286,-0.00000015,0.000043
 47,0.00005120,-0.00002075,-0.00001513,-0.00002526,0.00000283,0.0006791
 5,0.00058497,0.00011852,-0.00037182,-0.00051450,-0.00454245,0.00904632
 ,0.03430972,-0.00760196,-0.08838682,-0.16433045,0.01434716,-0.00237140
 ,-0.00317161,0.00322055,-0.00003242,0.00011501,0.00001211,0.00008390,-
 0.00005941,-0.00002359,-0.00002952,0.00010928,0.00001356,-0.00004666,-
 0.00007913,-0.00000042,-0.00000159,-0.00000129,-0.00000037,-0.00003285
 ,-0.00011781,0.00001474,0.00004528,0.00005209,-0.00001296,-0.00004974,
 0.00001585,-0.00000145,0.00001782,0.00004359,0.00000605,-0.00009565,0.
 00001139,-0.00000871,0.00007251,-0.00003270,0.00000865,0.00000231,-0.0
 0000330,-0.00000122,0.00009199,-0.00003296,0.00001611,-0.00004140,0.00
 003734,-0.00000540,0.00011467,0.00021257,-0.00001453,0.00008946,-0.000
 20834,0.00005415,-0.00008051,0.00017620,0.00004499,0.00003213,-0.00014
 426,0.00001494,0.00002173,0.00000545,0.00000241,-0.00003908,-0.0000490
 3,-0.00016365,0.00019847,-0.00013113,0.00011721,-0.00136485,-0.0001881
 4,-0.00088497,0.00045749,0.00031268,0.00029709,0.00104953,0.00024340,0
 .00113487,0.00000116,-0.00000285,-0.00000275,-0.00000668,0.00000451,-0
 .00000421,0.00000488,0.00000148,0.00000261,-0.00005532,0.00005139,-0.0
 0015008,0.00001468,-0.00009149,0.00010370,-0.00013609,-0.00054336,0.00
 024540,0.00065090,0.00045474,-0.00002911,-0.00000044,0.00000868,-0.000
 00072,0.00000521,-0.00000350,0.00000062,0.00000119,-0.00000327,0.00000
 015,0.00000127,0.00000419,-0.00000137,-0.00000040,0.00000229,-0.000000
 81,-0.00000528,-0.00000086,-0.00000088,0.00000175,0.00000037,0.0000006
 0,0.00000155,0.00000304,0.00000162,-0.00000907,-0.00000333,-0.00000849
 ,-0.00000021,-0.00000012,0.00000247,-0.00000349,0.00000783,-0.00000362
 ,-0.00000578,0.00007759,0.00000495,-0.00001804,0.00000363,-0.00000676,
 -0.00001628,0.00003953,-0.00001566,0.00002731,-0.00003102,0.00002395,-
 0.00005260,0.00007149,-0.00006564,0.00000318,-0.00000467,-0.00000372,0
 .00000004,0.00000258,-0.00000417,-0.00000243,-0.00000126,0.00000002,-0
 .00000202,0.00000061,-0.00000077,-0.00000333,0.00000106,-0.00000220,-0
 .00000175,0.00000163,-0.00000441,0.00000012,0.00000120,-0.00000546,0.0
 8134017,0.00001806,-0.00007719,-0.00004834,0.00006411,-0.00000433,0.00
 006989,-0.00006604,0.00001647,-0.00002772,0.00002970,0.00002015,-0.000
 00617,0.00009220,0.00001990,-0.00001303,0.00000081,0.00016562,0.000027
 00,-0.00009712,0.00005679,-0.00002159,-0.00010107,-0.00006925,-0.00001
 214,0.00000221,0.00000034,-0.00000604,0.00007571,0.00002204,0.00000041
 ,-0.00005273,0.00014857,0.00000109,-0.00012600,0.00006952,0.00003155,0
 .00012013,-0.00015732,0.00027934,0.00003964,-0.00004717,0.00000598,-0.
 00002003,0.00002728,-0.00002949,0.00001020,0.00001668,0.00001168,-0.00
 002048,-0.00089577,-0.00079227,0.00225765,0.00252774,0.00484723,-0.012
 92732,-0.02973118,0.00267246,-0.11936215,-0.39514123,0.05824256,-0.004
 51790,0.00353418,-0.00586024,-0.00003859,-0.00012127,0.00000914,-0.000
 09617,0.00008687,0.00002853,0.00006156,-0.00009389,-0.00001918,-0.0000
 2812,0.00007437,0.00000550,0.00000407,-0.00000189,0.00000080,0.0000350
 6,0.00012108,-0.00001385,-0.00004529,-0.00005831,0.00001311,0.00004545
 ,-0.00014065,-0.00001143,-0.00003611,-0.00006731,-0.00001203,0.0001254
 2,-0.00000372,0.00001320,-0.00015333,-0.00005683,-0.00003004,-0.000002
 84,0.00000478,0.00000031,-0.00013529,0.00005069,-0.00002208,0.00006438
 ,-0.00005446,0.00001009,0.00008765,-0.00019890,0.00004071,-0.00005062,
 0.00019093,-0.00002321,0.00011495,-0.00007188,-0.00000915,0.00011607,0
 .00006220,-0.00001595,-0.00002821,0.00000318,-0.00000366,0.00006525,0.
 00000477,0.00015250,0.00009173,0.00000293,-0.00003639,0.00021197,0.000
 19300,0.00014376,-0.00014311,-0.00023928,-0.00007065,-0.00017742,-0.00
 046988,-0.00007855,-0.00000575,0.00000470,-0.00000670,-0.00002149,-0.0
 0001007,0.00001101,-0.00000432,0.00000366,0.00000471,0.00003479,0.0000
 5464,0.00004292,0.00001599,0.00001949,0.00011241,0.00016953,0.00009788
 ,-0.00044850,0.00012774,0.00069572,-0.00028644,-0.00000194,-0.00000756
 ,0.00000049,-0.00000559,0.00000347,0.00000051,-0.00000071,0.00000188,-
 0.00000125,-0.00000111,-0.00000521,0.00000189,-0.00000030,-0.00000216,
 0.00000052,0.00000621,0.00000207,0.00000122,-0.00000175,0.00000021,-0.
 00000026,-0.00000227,-0.00000350,-0.00000230,0.00001625,0.00000337,0.0
 0000172,-0.00000224,-0.00000153,-0.00000258,-0.00000452,-0.00000197,0.
 00000290,0.00009167,0.00000671,-0.00010751,-0.00006023,0.00001245,-0.0
 0003052,0.00001019,-0.00004061,0.00011866,-0.00003270,-0.00003583,-0.0
 0000213,0.00032095,-0.00047891,0.00019164,-0.00000276,-0.00000407,-0.0
 0000081,-0.00000449,0.00000174,-0.00000037,0.00000349,0.00000214,0.000
 00010,0.00000250,-0.00000022,-0.00000045,0.00000425,-0.00000167,0.0000
 0234,0.00000258,-0.00000272,0.00000458,-0.00000053,-0.00000192,0.00000
 538,0.13297587,0.41846831,-0.00003710,0.00002973,0.00007823,-0.0000002
 3,0.00000524,-0.00002917,0.00000614,-0.00001500,0.00001210,0.00004523,
 -0.00011840,-0.00000936,-0.00001814,-0.00001448,-0.00001260,0.00001778
 ,-0.00006147,-0.00002882,-0.00006802,0.00002378,-0.00003713,-0.0000138
 5,-0.00004683,0.00000054,0.00006422,-0.00011938,-0.00000527,0.00003452
 ,0.00002886,-0.00000067,-0.00000761,0.00000562,-0.00001799,0.00004423,
 0.00004444,0.00001719,-0.00011076,0.00012027,-0.00016275,0.00005868,-0
 .00005724,-0.00000711,-0.00000731,0.00006960,0.00001286,-0.00001067,0.
 00000274,-0.00000457,-0.00022808,-0.00002263,0.00004442,-0.00450008,0.
 00166457,0.00356700,0.00965445,0.03377800,-0.00391623,-0.00259693,0.02
 805472,-0.03123194,0.00350795,-0.00545258,-0.00113812,-0.00008404,0.00
 014517,0.00002523,0.00009602,-0.00008365,-0.00002904,-0.00005507,0.000
 10074,0.00001859,-0.00003795,-0.00005025,0.00000770,-0.00000324,0.0000
 0336,-0.00000186,-0.00003361,-0.00011372,0.00001250,0.00004123,0.00005
 035,-0.00001478,-0.00008236,-0.00000240,0.00000146,0.00004341,0.000072
 48,0.00001023,-0.00011527,-0.00001114,-0.00001253,0.00009020,-0.000033
 03,0.00001777,0.00000133,-0.00000324,-0.00000086,0.00011852,-0.0000443
 6,0.00001796,-0.00005224,0.00004846,-0.00001133,0.00008785,0.00015768,
 0.00001451,0.00006658,-0.00017670,0.00003778,-0.00008844,0.00007374,-0
 .00000269,0.00001542,-0.00012382,0.00002355,0.00002199,0.00000565,0.00
 000112,0.00004948,0.00002134,-0.00008189,0.00006917,-0.00015023,0.0001
 8082,-0.00140721,-0.00019361,-0.00076917,0.00050895,0.00032092,0.00021
 683,0.00149809,0.00018542,0.00036552,-0.00000064,0.00000349,0.00000377
 ,0.00002191,0.00001209,0.00000928,0.00000037,-0.00001849,-0.00000086,0
 .00000211,0.00004044,0.00005493,-0.00004656,0.00015076,-0.00016193,0.0
 0027769,0.00129792,-0.00036221,-0.00016738,-0.00010209,-0.00018051,0.0
 0000160,0.00000751,0.00000505,0.00000670,-0.00000756,0.00000105,-0.000
 00055,0.00000023,0.00000003,0.00000254,0.00000440,0.00000059,0.0000003
 1,0.00000134,0.00000135,-0.00000703,-0.00000192,0.00000161,0.00000077,
 0.,-0.00000053,0.00000504,0.00000353,0.00000383,-0.00000845,0.00000429
 ,0.00000922,-0.00000336,0.00000632,-0.00000471,0.00000790,-0.00000317,
 0.00000359,-0.00008021,-0.00000590,0.00010916,0.00004812,-0.00000199,0
 .00002166,-0.00000050,0.00009092,-0.00004938,0.00004234,-0.00004168,0.
 00000358,-0.00018435,0.00022643,0.00002594,0.00000194,0.00000737,0.000
 00439,0.00000227,-0.00000320,0.00000340,-0.00000291,-0.00000100,0.0000
 0487,-0.00000205,-0.00000037,0.00000250,-0.00000404,0.00000194,0.00000
 071,-0.00000163,0.00000352,0.00000008,0.00000292,0.00000097,-0.0000027
 8,-0.00496825,-0.05948140,0.03369548,0.00026865,0.00034050,0.00026268,
 -0.00027604,-0.00001827,-0.00016975,0.00015962,-0.00008117,0.00014366,
 -0.00093268,-0.00035218,0.00018265,-0.00025073,0.00003550,0.00000238,0
 .00009803,0.00003329,-0.00007261,-0.00188671,-0.00029073,-0.00042255,-
 0.00136524,-0.00050268,-0.00005092,0.00019065,-0.00047380,-0.00006663,
 0.00030471,0.00023344,0.00003485,-0.00020089,0.00039525,-0.00009953,0.
 00082181,0.00130038,-0.00020977,0.00058171,-0.00069477,-0.00017529,-0.
 00002402,0.00009747,-0.00005302,0.00055846,0.00052313,-0.00005361,-0.0
 0003914,-0.00003134,0.00001862,0.00018167,-0.00006489,0.00035295,0.002
 26125,0.00057098,0.00048479,-0.01157000,-0.00183713,-0.00758696,0.0026
 4110,-0.00138915,0.00313798,0.00348359,0.00764982,0.00771810,-0.000251
 03,0.00034680,0.00010885,0.00024570,-0.00011107,-0.00006358,0.00006179
 ,0.00048695,0.00002509,-0.00042398,-0.00044867,0.00000463,0.00000701,-
 0.00001461,-0.00000058,-0.00013054,-0.00045057,0.00006240,0.00017512,0
 .00017913,-0.00005164,-0.00017331,-0.00020404,-0.00000964,0.00000751,0
 .00009398,0.00000341,-0.00032285,0.00009648,-0.00001216,0.00011526,-0.
 00038510,-0.00000989,0.00000866,-0.00000890,-0.00000470,0.00025986,-0.
 00009115,0.00004070,-0.00010085,0.00010369,-0.00001721,0.00137632,0.00
 152607,-0.00000367,0.00072228,-0.00157895,0.00046944,-0.00016282,0.001
 68518,0.00020020,0.00062259,-0.00107700,0.00037613,0.00012105,0.000054
 43,-0.00000177,-0.00030241,-0.00028339,-0.00080152,0.00240205,-0.00048
 722,0.00134204,-0.03012270,-0.02835641,-0.01008820,0.00253055,0.004167
 68,-0.00254944,-0.13208535,-0.14780941,-0.04677181,0.00000158,0.000008
 78,-0.00005014,-0.00011502,0.00000521,0.00004094,0.00001622,-0.0000019
 3,0.00004392,-0.00003232,0.00013478,-0.00010844,-0.00005974,-0.0002801
 7,0.00024183,0.00004663,0.00000100,-0.00005902,0.00013982,0.00065796,-
 0.00030368,-0.00001706,0.00003104,0.00000389,0.00001607,-0.00001681,0.
 00000960,0.00000198,-0.00001316,-0.00000596,0.00000678,0.00001042,-0.0
 0000212,-0.00000518,0.00000775,-0.00000107,-0.00001852,-0.00000550,0.0
 0000068,0.00000566,0.00000198,-0.00000005,0.00000828,0.00000877,0.0000
 0795,-0.00006793,-0.00003379,0.00000714,-0.00002289,0.00002326,0.00000
 084,0.00000101,0.00002798,-0.00001314,-0.00049258,0.00152129,0.0010753
 7,0.00000004,0.00004069,-0.00000681,0.00008402,0.00085141,-0.00018111,
 0.00094011,-0.00108508,0.00057182,0.00088714,-0.00044301,0.00022150,0.
 00001092,-0.00005558,-0.00000470,-0.00001780,0.00003089,-0.00001690,-0
 .00000810,-0.00000976,0.00000285,-0.00000642,0.00000134,0.00000077,-0.
 00001018,0.00000350,-0.00000309,-0.00000791,0.00000584,-0.00000688,0.0
 0000265,-0.00000007,-0.00001914,-0.00074815,0.00086263,-0.00152985,0.1
 5987519,0.00009799,-0.00004370,0.00014526,-0.00005438,-0.00001353,-0.0
 0006274,0.00001330,-0.00002438,0.00014069,-0.00075395,-0.00055940,0.00
 019313,0.00017867,0.00000845,-0.00006921,0.00016712,0.00053568,-0.0000
 0032,-0.00170094,0.00063068,-0.00050777,-0.00149554,-0.00091898,0.0000
 5161,0.00041242,-0.00087317,-0.00009837,0.00082686,0.00046986,0.000046
 57,-0.00049060,0.00111651,-0.00015411,0.00042599,0.00180543,-0.0002890
 6,0.00075081,-0.00053387,-0.00023790,0.00010751,-0.00013659,-0.0000411
 1,0.00048263,0.00090531,-0.00007454,-0.00004256,-0.00002330,0.00001944
 ,0.00019587,-0.00018149,0.00030895,0.00172353,0.00048216,0.00132416,-0
 .00874771,0.00428263,-0.00654338,0.00440159,-0.00280415,0.00376047,0.0
 0688928,-0.00406419,0.00491069,-0.00079053,0.00033842,0.00019021,0.000
 14451,0.00001438,-0.00002593,0.00015624,0.00045996,0.00000867,-0.00074
 040,-0.00022619,0.00005202,0.00000563,-0.00001110,-0.00000316,-0.00009
 674,-0.00033221,0.00005020,0.00013233,0.00011341,-0.00003892,-0.000345
 39,-0.00090444,-0.00009564,0.00000954,0.00009762,-0.00000653,-0.000317
 09,0.00009094,-0.00001394,-0.00012559,-0.00081160,-0.00008246,-0.00000
 159,-0.00000221,-0.00001307,0.00020538,-0.00008494,0.00003809,-0.00006
 512,0.00009070,-0.00001056,0.00163470,0.00047020,0.00023228,0.00039893
 ,-0.00066082,0.00031761,-0.00020109,0.00035539,0.00010648,0.00094813,-
 0.00095668,0.00038030,0.00005073,0.00007058,-0.00002105,0.00068315,-0.
 00002251,0.00001408,0.00379872,-0.00083342,0.00194418,-0.00010952,0.00
 717185,-0.00263973,0.00925078,0.00583809,0.00597995,-0.18439084,-0.309
 95435,-0.06391012,-0.00000077,0.00001596,-0.00004773,-0.00011140,-0.00
 000067,0.00004317,0.00001383,0.00000253,0.00003977,0.00000210,0.000196
 43,-0.00010315,-0.00019285,-0.00022733,0.00030411,0.00014678,0.0001299
 6,-0.00008178,0.00016257,0.00065079,-0.00022805,-0.00001220,0.00002511
 ,0.00000489,0.00001226,-0.00001300,0.00000917,0.00000473,-0.00001154,-
 0.00000575,0.00000688,0.00000806,-0.00000100,-0.00000601,0.00000597,-0
 .00000150,-0.00001713,0.00000334,0.00000633,0.00000366,0.00000439,0.00
 000182,0.00001028,0.00000915,0.00000788,0.00003162,0.00004152,-0.00000
 719,-0.00002557,0.00000691,-0.00003081,-0.00002751,0.00002163,0.000026
 59,0.00087651,-0.00017999,-0.00061887,-0.00034100,0.00010721,-0.000072
 53,0.00044945,0.00010975,0.00115391,0.00015839,-0.00109904,0.00012848,
 0.00060362,-0.00137863,0.00024017,0.00000835,-0.00004863,-0.00000984,-
 0.00000839,-0.00000725,-0.00001982,-0.00000392,0.00000098,0.00001092,-
 0.00000276,-0.00000256,-0.00000101,-0.00000964,0.00000617,-0.00000106,
 -0.00000174,0.00001057,-0.00000385,0.00000428,-0.00000042,-0.00001449,
 -0.00018794,0.00150116,-0.00031346,0.16483076,0.29974044,0.00005689,0.
 00005552,0.00009768,0.00002201,-0.00000645,0.00001295,-0.00005532,-0.0
 0002870,0.00001901,-0.00030962,-0.00020399,0.00006668,-0.00001463,0.00
 001146,-0.00001832,0.00005978,0.00011381,-0.00002840,-0.00076129,0.000
 13251,-0.00021240,-0.00060528,-0.00026135,-0.00014333,0.00013358,-0.00
 028922,-0.00004015,0.00023743,0.00014936,0.00001556,-0.00014173,0.0003
 4068,-0.00006431,0.00022675,0.00064332,-0.00005639,0.00024353,-0.00024
 441,-0.00019753,0.00002206,-0.00002650,-0.00002079,0.00020767,0.000307
 11,0.00000202,-0.00001644,-0.00000795,0.00000290,0.00023181,-0.0000110
 0,0.00043459,0.00062495,0.00070786,0.00113929,-0.00565735,-0.00074058,
 -0.00315876,0.00149291,-0.00065543,0.00086760,0.00626982,0.00374569,-0
 .00429865,-0.00022375,0.00015854,0.00006963,0.00009168,-0.00003361,-0.
 00002308,0.00003602,0.00020337,0.00001006,-0.00024387,-0.00014454,0.00
 001503,0.00000258,-0.00000447,-0.00000156,-0.00005187,-0.00017266,0.00
 002376,0.00006624,0.00006513,-0.00002163,-0.00011604,-0.00023073,-0.00
 001720,0.00000933,0.00005046,0.00000066,-0.00014589,0.00003680,-0.0000
 0494,0.00000751,-0.00025370,-0.00001504,0.00000233,-0.00000256,-0.0000
 0291,0.00011291,-0.00004373,0.00001560,-0.00004076,0.00004707,-0.00001
 084,0.00058628,0.00049450,0.00011535,0.00027672,-0.00037672,0.00016138
 ,-0.00036977,0.00023375,-0.00031225,0.00026101,-0.00041906,0.00016106,
 0.00004869,0.00002240,-0.00002306,0.00111892,0.00037564,0.00062375,0.0
 0042102,-0.00101905,0.00118131,-0.01603765,-0.01883357,-0.01354518,-0.
 00325764,0.00277852,0.00415699,-0.03931737,-0.04243004,-0.03119253,-0.
 00000021,0.00001785,-0.00001924,-0.00003965,0.00000311,0.00003276,0.00
 000822,-0.00001090,0.00001560,0.00000963,0.00010889,-0.00007646,-0.000
 07936,-0.00003062,0.00008833,0.00016398,0.00016286,-0.00005913,0.00008
 469,0.00032611,-0.00004041,-0.00000582,0.00001222,0.00000550,0.0000073
 5,-0.00000889,0.00000419,0.00000069,-0.00000282,-0.00000250,0.00000390
 ,0.00000420,0.00000075,-0.00000188,0.00000258,0.00000098,-0.00000894,-
 0.00000147,0.00000290,0.00000114,0.00000144,-0.00000035,0.00000608,0.0
 0000393,0.00000475,0.00000918,0.00000606,0.00004193,-0.00003226,0.0000
 3029,-0.00001508,0.00000243,-0.00000470,0.00000349,0.00014398,-0.00065
 073,-0.00020001,-0.00002148,0.00002240,-0.00025902,-0.00006772,0.00173
 458,-0.00082715,0.00078510,-0.00037791,-0.00014835,0.00030383,-0.00030
 359,0.00051564,0.00000469,-0.00001831,0.00000311,-0.00000471,0.0000025
 9,0.00000200,-0.00000295,-0.00000239,0.00000558,-0.00000241,-0.0000005
 9,0.00000313,-0.00000486,0.00000254,0.00000176,-0.00000210,0.00000428,
 0.00000284,0.00000307,-0.00000033,-0.00000568,-0.00122565,0.00042457,-
 0.00036120,0.05445787,0.05430928,0.04549570\\0.00746969,-0.00813837,-0
 .04897360,0.08854581,0.00767822,0.06643984,-0.09005126,-0.00857296,-0.
 06313903,0.02549426,-0.00772677,0.00402771,0.00438303,0.02271868,0.013
 25308,-0.02086593,0.00822302,0.01476641,-0.01507498,-0.01409320,0.0135
 7172,0.00001995,-0.00001409,0.00001658,-0.00003299,0.00001387,0.000007
 14,-0.00002117,-0.00001133,-0.00000231,0.00003469,-0.00003108,-0.00004
 586,0.00003942,-0.00001341,0.00006539,-0.00001398,-0.00000713,-0.00007
 461,-0.00005634,-0.00003415,-0.00000254,0.00005044,0.00004245,-0.00001
 107,-0.00007451,0.00002302,0.00000567,-0.00001560,0.00001445,0.0000859
 6,0.00002834,0.00005374,-0.00003895,-0.00006483,-0.00003203,-0.0000398
 1,0.00005662,-0.00003665,0.00006265,-0.00007225,-0.00017473,-0.0001288
 0,0.00002304,0.00004470,0.00001518,0.00001613,-0.00005549,0.00000318,-
 0.00000568,0.00004001,-0.00001330,-0.00001624,-0.00002345,0.00002526,-
 0.00000256,-0.00000145,-0.00001747,-0.00000959,-0.00001425,0.00001429,
 0.00004245,0.00001955,-0.00000852,-0.00005274,0.00005454,-0.00006848,0
 .00008715,-0.00009255,0.00001139,0.00003065,0.00001831,0.00005318,-0.0
 0001705,-0.00008316,0.00003383,-0.00001649,-0.00002318,0.00001481,0.00
 001872,-0.00000602,0.00000165,-0.00000898,0.00002072,-0.00000092,-0.00
 000534,-0.00000996,0.00000808,0.00005174,0.00000868,-0.00007288,-0.000
 04525,-0.00004153,0.00000511,0.00006842,0.00002267,0.00004111,-0.00003
 124,-0.00001885,-0.00001713,-0.00062580,-0.00018564,-0.00018108,0.0005
 6189,0.00010857,0.00018428,-0.00016546,0.00014373,-0.00007467,0.000049
 44,0.00001625,0.00004364,0.00026578,0.00015207,0.00000796,0.00004143,-
 0.00000934,0.00000229,0.00003211,0.00000234,-0.00001498,0.00000780,-0.
 00000415,0.00000307,-0.00001377,-0.00002550,0.00001455,-0.00002837,0.0
 0007463,-0.00001371,-0.00000751,-0.00002961,-0.00000006,0.00000945,0.0
 0001129,0.00000429,-0.00002254,0.00005914,0.00002141,0.00002952,-0.000
 04653,0.00000476,-0.00003070,0.00002293,0.00000233,-0.00003625,-0.0000
 1693,-0.00002928,0.00000032,0.00000364,0.00000433,-0.00003608,0.000010
 31,-0.00001397,-0.00003066,0.00001217,0.00001176,-0.00004554,0.0000282
 1,-0.00001381,-0.00001530,-0.00000826,0.00001015,0.00002584,0.00003530
 ,0.00000241,-0.00003683,-0.00000588,0.00000112,0.00017112,-0.00006203,
 -0.00029925,-0.00005895,0.00021207,0.00038743,0.00009563,-0.00006182,-
 0.00005356,-0.00002757,0.00002652,0.00003750,-0.00004080,-0.00003248,-
 0.00005522,0.00002450,-0.00007540,-0.00000606,-0.00001765,-0.00000322,
 0.00006080,0.00004529,0.00001315,-0.00001152,-0.00000323,0.00000396,0.
 00000705,0.00003371,-0.00001010,-0.00000581,-0.00000139,0.00000403,-0.
 00005508,0.00000695,0.00000067,0.00001029,-0.00000102,0.00001885,-0.00
 002982,-0.00006091,-0.00012378,0.00016254\\\@


 KNIGHT- SIRE, I'VE JUST RETURNED FROM THE FRONT
 KING-   HOW GOES THE BATTLE                    
 KNIGHT- THE SITUATION IS QUITE FLUID           
 KING-   WHAT DOES *THAT* MEAN                  
 KNIGHT- WE'RE UP THE CREEK                     
                THE WIZARD OF ID                
 Job cpu time:       0 days 10 hours 11 minutes 11.8 seconds.
 File lengths (MBytes):  RWF=   2465 Int=      0 D2E=      0 Chk=     23 Scr=      1
 Normal termination of Gaussian 09 at Mon Feb 29 10:39:34 2016.
