 Entering Gaussian System, Link 0=g09
 Input=./MBO_L_-90.gjf
 Output=./MBO_L_-90.log
 Initial command:
 /nas02/apps/gaussian-09d01/em64t/g09/l1.exe "/lustre/appscr/gausswork/tcheshir/Gau-8944.inp" -scrdir="/lustre/appscr/gausswork/tcheshir/"
 Entering Link 1 = /nas02/apps/gaussian-09d01/em64t/g09/l1.exe PID=      8945.
  
 Copyright (c) 1988,1990,1992,1993,1995,1998,2003,2009,2013,
            Gaussian, Inc.  All Rights Reserved.
  
 This is part of the Gaussian(R) 09 program.  It is based on
 the Gaussian(R) 03 system (copyright 2003, Gaussian, Inc.),
 the Gaussian(R) 98 system (copyright 1998, Gaussian, Inc.),
 the Gaussian(R) 94 system (copyright 1995, Gaussian, Inc.),
 the Gaussian 92(TM) system (copyright 1992, Gaussian, Inc.),
 the Gaussian 90(TM) system (copyright 1990, Gaussian, Inc.),
 the Gaussian 88(TM) system (copyright 1988, Gaussian, Inc.),
 the Gaussian 86(TM) system (copyright 1986, Carnegie Mellon
 University), and the Gaussian 82(TM) system (copyright 1983,
 Carnegie Mellon University). Gaussian is a federally registered
 trademark of Gaussian, Inc.
  
 This software contains proprietary and confidential information,
 including trade secrets, belonging to Gaussian, Inc.
  
 This software is provided under written license and may be
 used, copied, transmitted, or stored only in accord with that
 written license.
  
 The following legend is applicable only to US Government
 contracts under FAR:
  
                    RESTRICTED RIGHTS LEGEND
  
 Use, reproduction and disclosure by the US Government is
 subject to restrictions as set forth in subparagraphs (a)
 and (c) of the Commercial Computer Software - Restricted
 Rights clause in FAR 52.227-19.
  
 Gaussian, Inc.
 340 Quinnipiac St., Bldg. 40, Wallingford CT 06492
  
  
 ---------------------------------------------------------------
 Warning -- This program may not be used in any manner that
 competes with the business of Gaussian, Inc. or will provide
 assistance to any competitor of Gaussian, Inc.  The licensee
 of this program is prohibited from giving any competitor of
 Gaussian, Inc. access to this program.  By using this program,
 the user acknowledges that Gaussian, Inc. is engaged in the
 business of creating and licensing software in the field of
 computational chemistry and represents and warrants to the
 licensee that it is not a competitor of Gaussian, Inc. and that
 it will not use this program in any manner prohibited above.
 ---------------------------------------------------------------
  

 Cite this work as:
 Gaussian 09, Revision D.01,
 M. J. Frisch, G. W. Trucks, H. B. Schlegel, G. E. Scuseria, 
 M. A. Robb, J. R. Cheeseman, G. Scalmani, V. Barone, B. Mennucci, 
 G. A. Petersson, H. Nakatsuji, M. Caricato, X. Li, H. P. Hratchian, 
 A. F. Izmaylov, J. Bloino, G. Zheng, J. L. Sonnenberg, M. Hada, 
 M. Ehara, K. Toyota, R. Fukuda, J. Hasegawa, M. Ishida, T. Nakajima, 
 Y. Honda, O. Kitao, H. Nakai, T. Vreven, J. A. Montgomery, Jr., 
 J. E. Peralta, F. Ogliaro, M. Bearpark, J. J. Heyd, E. Brothers, 
 K. N. Kudin, V. N. Staroverov, T. Keith, R. Kobayashi, J. Normand, 
 K. Raghavachari, A. Rendell, J. C. Burant, S. S. Iyengar, J. Tomasi, 
 M. Cossi, N. Rega, J. M. Millam, M. Klene, J. E. Knox, J. B. Cross, 
 V. Bakken, C. Adamo, J. Jaramillo, R. Gomperts, R. E. Stratmann, 
 O. Yazyev, A. J. Austin, R. Cammi, C. Pomelli, J. W. Ochterski, 
 R. L. Martin, K. Morokuma, V. G. Zakrzewski, G. A. Voth, 
 P. Salvador, J. J. Dannenberg, S. Dapprich, A. D. Daniels, 
 O. Farkas, J. B. Foresman, J. V. Ortiz, J. Cioslowski, 
 and D. J. Fox, Gaussian, Inc., Wallingford CT, 2013.
 
 ******************************************
 Gaussian 09:  EM64L-G09RevD.01 24-Apr-2013
                29-Feb-2016 
 ******************************************
 %nprocshared=8
 Will use up to    8 processors via shared memory.
 %nosave
 %mem=16GB
 %chk=MBO_L_-90.chk
 ----------------------------------------------------------------------
 #p freq=savenormalmodes rb3lyp/lanl2dz scrf=check guess=(read,save) ge
 om=connectivity iop(7/33=1)
 ----------------------------------------------------------------------
 1/10=4,30=1,38=1,40=1,57=2/1,3;
 2/12=2,17=6,18=5,40=1/2;
 3/5=6,6=3,11=2,16=1,25=1,30=1,70=2,71=2,74=-5,116=1,140=1/1,2,3;
 4/5=1/1;
 5/5=2,38=6,98=1/2;
 8/6=4,10=90,11=11/1;
 11/6=1,8=1,9=11,15=111,16=1/1,2,10;
 10/6=1/2;
 6/7=2,8=2,9=2,10=2,18=1,28=1/1;
 7/8=1,10=1,25=1,33=1,92=1/1,2,3,16;
 1/10=4,30=1/3;
 99//99;
 Leave Link    1 at Mon Feb 29 09:22:56 2016, MaxMem=  2147483648 cpu:         0.8
 (Enter /nas02/apps/gaussian-09d01/em64t/g09/l101.exe)
 -----------------------------------
 Oxy myoglobin frequency calculation
 -----------------------------------
 Symbolic Z-matrix:
 Charge =  2 Multiplicity = 1
 Fe
 O                    1    B1
 O                    2    B2       1    A1
 N                    1    B3       2    A2       3    D1       0
 N                    1    B4       2    A3       3    D2       0
 N                    1    B5       2    A4       3    D3       0
 N                    1    B6       2    A5       3    D4       0
 C                    7    B7       1    A6       2    D5       0
 C                    5    B8       1    A7       2    D6       0
 C                    5    B9       1    A8       2    D7       0
 C                    6    B10      1    A9       2    D8       0
 C                    4    B11      1    A10      2    D9       0
 C                    12   B12      4    A11      1    D10      0
 C                    13   B13      12   A12      4    D11      0
 C                    9    B14      5    A13      1    D12      0
 C                    14   B15      13   A14      12   D13      0
 C                    13   B16      12   A15      4    D14      0
 C                    17   B17      13   A16      14   D15      0
 C                    18   B18      17   A17      13   D16      0
 O                    19   B19      18   A18      17   D17      0
 O                    19   B20      18   A19      17   D18      0
 C                    5    B21      1    A20      2    D19      0
 C                    22   B22      5    A21      1    D20      0
 C                    23   B23      22   A22      5    D21      0
 C                    10   B24      5    A23      1    D22      0
 C                    23   B25      22   A24      5    D23      0
 C                    24   B26      23   A25      22   D24      0
 C                    27   B27      24   A26      23   D25      0
 C                    6    B28      1    A27      2    D26      0
 C                    29   B29      6    A28      1    D27      0
 C                    30   B30      29   A29      6    D28      0
 C                    11   B31      6    A30      1    D29      0
 C                    30   B32      29   A31      6    D30      0
 C                    31   B33      30   A32      29   D31      0
 C                    34   B34      31   A33      30   D32      0
 C                    7    B35      1    A34      2    D33      0
 C                    36   B36      7    A35      1    D34      0
 C                    37   B37      36   A36      7    D35      0
 C                    38   B38      37   A37      1    D36      0
 C                    37   B39      36   A38      7    D37      0
 C                    38   B40      37   A39      36   D38      0
 C                    41   B41      38   A40      37   D39      0
 C                    42   B42      41   A41      38   D40      0
 O                    43   B43      42   A42      41   D41      0
 O                    43   B44      42   A43      41   D42      0
 H                    16   B45      14   A44      13   D43      0
 H                    16   B46      14   A45      13   D44      0
 H                    16   B47      14   A46      13   D45      0
 H                    17   B48      13   A47      12   D46      0
 H                    17   B49      13   A48      12   D47      0
 H                    18   B50      17   A49      13   D48      0
 H                    18   B51      17   A50      13   D49      0
 H                    26   B52      23   A51      22   D50      0
 H                    26   B53      23   A52      22   D51      0
 H                    26   B54      23   A53      22   D52      0
 H                    28   B55      27   A54      24   D53      0
 H                    28   B56      27   A55      24   D54      0
 H                    33   B57      30   A56      29   D55      0
 H                    33   B58      30   A57      29   D56      0
 H                    33   B59      30   A58      29   D57      0
 H                    40   B60      37   A59      36   D58      0
 H                    40   B61      37   A60      36   D59      0
 H                    40   B62      37   A61      36   D60      0
 H                    41   B63      38   A62      37   D61      0
 H                    41   B64      38   A63      37   D62      0
 H                    42   B65      41   A64      38   D63      0
 H                    42   B66      41   A65      38   D64      0
 H                    8    B67      7    A66      1    D65      0
 H                    9    B68      5    A67      1    D66      0
 H                    11   B69      6    A68      1    D67      0
 H                    10   B70      5    A69      1    D68      0
 H                    35   B71      34   A70      31   D69      0
 H                    35   B72      34   A71      31   D70      0
 H                    34   B73      31   A72      30   D71      0
 H                    27   B74      24   A73      23   D72      0
 H                    20   B75      19   A74      18   D73      0
 H                    45   B76      43   A75      42   D74      0
       Variables:
  B1                    1.82671                  
  B2                    1.2165                   
  B3                    1.94997                  
  B4                    1.94995                  
  B5                    1.94995                  
  B6                    1.94998                  
  B7                    2.46145                  
  B8                    2.47262                  
  B9                    2.46614                  
  B10                   2.45818                  
  B11                   1.36413                  
  B12                   1.47737                  
  B13                   1.37085                  
  B14                   1.35671                  
  B15                   1.50025                  
  B16                   1.50974                  
  B17                   1.5661                   
  B18                   1.5177                   
  B19                   1.3522                   
  B20                   1.25483                  
  B21                   1.37847                  
  B22                   1.45112                  
  B23                   1.39163                  
  B24                   1.36097                  
  B25                   1.50314                  
  B26                   1.44883                  
  B27                   1.36548                  
  B28                   1.37604                  
  B29                   1.45311                  
  B30                   1.39227                  
  B31                   1.36085                  
  B32                   1.50254                  
  B33                   1.4485                   
  B34                   1.36568                  
  B35                   1.37056                  
  B36                   1.46812                  
  B37                   1.3756                   
  B38                   1.47783                  
  B39                   1.50263                  
  B40                   1.50071                  
  B41                   1.566                    
  B42                   1.53781                  
  B43                   1.23338                  
  B44                   1.37342                  
  B45                   1.09809                  
  B46                   1.09277                  
  B47                   1.0984                   
  B48                   1.09361                  
  B49                   1.09703                  
  B50                   1.09951                  
  B51                   1.09282                  
  B52                   1.09292                  
  B53                   1.097                    
  B54                   1.0985                   
  B55                   1.08421                  
  B56                   1.08668                  
  B57                   1.09321                  
  B58                   1.09884                  
  B59                   1.09684                  
  B60                   1.09313                  
  B61                   1.09833                  
  B62                   1.09824                  
  B63                   1.09575                  
  B64                   1.09543                  
  B65                   1.09703                  
  B66                   1.09309                  
  B67                   1.08489                  
  B68                   1.08255                  
  B69                   1.08248                  
  B70                   1.08167                  
  B71                   1.08664                  
  B72                   1.08396                  
  B73                   1.08784                  
  B74                   1.08827                  
  B75                   0.98705                  
  B76                   0.99259                  
  A1                  115.51459                  
  A2                   89.99903                  
  A3                   90.00029                  
  A4                   89.99994                  
  A5                   89.99962                  
  A6                  101.94944                  
  A7                  100.63307                  
  A8                  100.4375                   
  A9                  100.12176                  
  A10                 129.70045                  
  A11                 113.42011                  
  A12                 106.13721                  
  A13                  96.00285                  
  A14                 129.63792                  
  A15                 125.11683                  
  A16                 115.87855                  
  A17                 112.75649                  
  A18                 112.98485                  
  A19                 123.76007                  
  A20                 129.32762                  
  A21                 113.93997                  
  A22                 105.84741                  
  A23                  27.92573                  
  A24                 126.01672                  
  A25                 131.01406                  
  A26                 126.89621                  
  A27                 129.04728                  
  A28                 113.76369                  
  A29                 105.87319                  
  A30                  28.28108                  
  A31                 125.94053                  
  A32                 131.11785                  
  A33                 127.0052                   
  A34                 127.48346                  
  A35                 113.19442                  
  A36                 106.11407                  
  A37                 106.23812                  
  A38                 125.00408                  
  A39                 128.92576                  
  A40                 112.5305                   
  A41                 109.8774                   
  A42                 122.73992                  
  A43                 115.59503                  
  A44                 111.46141                  
  A45                 111.56386                  
  A46                 111.52425                  
  A47                 108.54192                  
  A48                 109.03599                  
  A49                 111.33132                  
  A50                 111.34268                  
  A51                 112.87304                  
  A52                 110.74389                  
  A53                 111.44574                  
  A54                 123.62342                  
  A55                 120.17815                  
  A56                 112.79575                  
  A57                 111.52316                  
  A58                 110.73234                  
  A59                 111.15606                  
  A60                 111.61135                  
  A61                 111.88661                  
  A62                 110.05182                  
  A63                 109.42703                  
  A64                 110.45967                  
  A65                 109.946                    
  A66                 147.94648                  
  A67                 145.48787                  
  A68                 147.75979                  
  A69                 146.87328                  
  A70                 120.12231                  
  A71                 123.70971                  
  A72                 116.6159                   
  A73                 116.52013                  
  A74                 115.04889                  
  A75                 116.13079                  
  D1                 -159.714                    
  D2                  110.35291                  
  D3                   20.07987                  
  D4                  -71.07                     
  D5                  -97.75119                  
  D6                   80.7776                   
  D7                  -97.72215                  
  D8                  -83.0713                   
  D9                   96.4525                   
  D10                -173.70608                  
  D11                   0.94379                  
  D12                   7.66033                  
  D13                 178.63358                  
  D14                 176.73731                  
  D15                -109.09904                  
  D16                -122.3566                   
  D17                -146.03219                  
  D18                  35.07085                  
  D19                  80.43125                  
  D20                 178.6391                   
  D21                  -1.41689                  
  D22                -173.71611                  
  D23                -179.20146                  
  D24                -177.16638                  
  D25                 -14.3596                   
  D26                  98.31428                  
  D27                -178.082                    
  D28                   1.02796                  
  D29                 175.15924                  
  D30                -178.88151                  
  D31                 178.71258                  
  D32                 -10.6166                   
  D33                  82.65481                  
  D34                 177.40963                  
  D35                  -2.54371                  
  D36                   2.87072                  
  D37                 178.72752                  
  D38                -177.64634                  
  D39                -184.                       
  D40                 176.40023                  
  D41                -104.62301                  
  D42                  73.42056                  
  D43                -120.93192                  
  D44                  -0.90056                  
  D45                 118.93077                  
  D46                -161.97279                  
  D47                 -47.15236                  
  D48                  -2.3428                   
  D49                 115.78854                  
  D50                  13.44867                  
  D51                 133.26193                  
  D52                -107.21109                  
  D53                  -2.26989                  
  D54                 179.24434                  
  D55                  14.58566                  
  D56                -106.1841                   
  D57                 134.22465                  
  D58                 179.35361                  
  D59                 -61.26463                  
  D60                  59.52672                  
  D61                 143.1958                   
  D62                  26.04493                  
  D63                 -61.89956                  
  D64                  57.89628                  
  D65                -174.8246                   
  D66                -171.81323                  
  D67                 174.88792                  
  D68                -176.03729                  
  D69                -179.76218                  
  D70                  -1.18609                  
  D71                 170.46281                  
  D72                 165.64678                  
  D73                -178.68388                  
  D74                   4.25956                  
 
 NAtoms=     77 NQM=       77 NQMF=       0 NMMI=      0 NMMIF=      0
                NMic=       0 NMicF=      0.
                    Isotopes and Nuclear Properties:
 (Nuclear quadrupole moments (NQMom) in fm**2, nuclear magnetic moments (NMagM)
  in nuclear magnetons)

  Atom         1           2           3           4           5           6           7           8           9          10
 IAtWgt=          56          16          16          14          14          14          14          12          12          12
 AtmWgt=  55.9349393  15.9949146  15.9949146  14.0030740  14.0030740  14.0030740  14.0030740  12.0000000  12.0000000  12.0000000
 NucSpn=           0           0           0           2           2           2           2           0           0           0
 AtZEff=   0.0000000   0.0000000   0.0000000   0.0000000   0.0000000   0.0000000   0.0000000   0.0000000   0.0000000   0.0000000
 NQMom=    0.0000000   0.0000000   0.0000000   2.0440000   2.0440000   2.0440000   2.0440000   0.0000000   0.0000000   0.0000000
 NMagM=    0.0000000   0.0000000   0.0000000   0.4037610   0.4037610   0.4037610   0.4037610   0.0000000   0.0000000   0.0000000
 AtZNuc=  26.0000000   8.0000000   8.0000000   7.0000000   7.0000000   7.0000000   7.0000000   6.0000000   6.0000000   6.0000000

  Atom        11          12          13          14          15          16          17          18          19          20
 IAtWgt=          12          12          12          12          12          12          12          12          12          16
 AtmWgt=  12.0000000  12.0000000  12.0000000  12.0000000  12.0000000  12.0000000  12.0000000  12.0000000  12.0000000  15.9949146
 NucSpn=           0           0           0           0           0           0           0           0           0           0
 AtZEff=   0.0000000   0.0000000   0.0000000   0.0000000   0.0000000   0.0000000   0.0000000   0.0000000   0.0000000   0.0000000
 NQMom=    0.0000000   0.0000000   0.0000000   0.0000000   0.0000000   0.0000000   0.0000000   0.0000000   0.0000000   0.0000000
 NMagM=    0.0000000   0.0000000   0.0000000   0.0000000   0.0000000   0.0000000   0.0000000   0.0000000   0.0000000   0.0000000
 AtZNuc=   6.0000000   6.0000000   6.0000000   6.0000000   6.0000000   6.0000000   6.0000000   6.0000000   6.0000000   8.0000000

  Atom        21          22          23          24          25          26          27          28          29          30
 IAtWgt=          16          12          12          12          12          12          12          12          12          12
 AtmWgt=  15.9949146  12.0000000  12.0000000  12.0000000  12.0000000  12.0000000  12.0000000  12.0000000  12.0000000  12.0000000
 NucSpn=           0           0           0           0           0           0           0           0           0           0
 AtZEff=   0.0000000   0.0000000   0.0000000   0.0000000   0.0000000   0.0000000   0.0000000   0.0000000   0.0000000   0.0000000
 NQMom=    0.0000000   0.0000000   0.0000000   0.0000000   0.0000000   0.0000000   0.0000000   0.0000000   0.0000000   0.0000000
 NMagM=    0.0000000   0.0000000   0.0000000   0.0000000   0.0000000   0.0000000   0.0000000   0.0000000   0.0000000   0.0000000
 AtZNuc=   8.0000000   6.0000000   6.0000000   6.0000000   6.0000000   6.0000000   6.0000000   6.0000000   6.0000000   6.0000000

  Atom        31          32          33          34          35          36          37          38          39          40
 IAtWgt=          12          12          12          12          12          12          12          12          12          12
 AtmWgt=  12.0000000  12.0000000  12.0000000  12.0000000  12.0000000  12.0000000  12.0000000  12.0000000  12.0000000  12.0000000
 NucSpn=           0           0           0           0           0           0           0           0           0           0
 AtZEff=   0.0000000   0.0000000   0.0000000   0.0000000   0.0000000   0.0000000   0.0000000   0.0000000   0.0000000   0.0000000
 NQMom=    0.0000000   0.0000000   0.0000000   0.0000000   0.0000000   0.0000000   0.0000000   0.0000000   0.0000000   0.0000000
 NMagM=    0.0000000   0.0000000   0.0000000   0.0000000   0.0000000   0.0000000   0.0000000   0.0000000   0.0000000   0.0000000
 AtZNuc=   6.0000000   6.0000000   6.0000000   6.0000000   6.0000000   6.0000000   6.0000000   6.0000000   6.0000000   6.0000000

  Atom        41          42          43          44          45          46          47          48          49          50
 IAtWgt=          12          12          12          16          16           1           1           1           1           1
 AtmWgt=  12.0000000  12.0000000  12.0000000  15.9949146  15.9949146   1.0078250   1.0078250   1.0078250   1.0078250   1.0078250
 NucSpn=           0           0           0           0           0           1           1           1           1           1
 AtZEff=   0.0000000   0.0000000   0.0000000   0.0000000   0.0000000   0.0000000   0.0000000   0.0000000   0.0000000   0.0000000
 NQMom=    0.0000000   0.0000000   0.0000000   0.0000000   0.0000000   0.0000000   0.0000000   0.0000000   0.0000000   0.0000000
 NMagM=    0.0000000   0.0000000   0.0000000   0.0000000   0.0000000   2.7928460   2.7928460   2.7928460   2.7928460   2.7928460
 AtZNuc=   6.0000000   6.0000000   6.0000000   8.0000000   8.0000000   1.0000000   1.0000000   1.0000000   1.0000000   1.0000000

  Atom        51          52          53          54          55          56          57          58          59          60
 IAtWgt=           1           1           1           1           1           1           1           1           1           1
 AtmWgt=   1.0078250   1.0078250   1.0078250   1.0078250   1.0078250   1.0078250   1.0078250   1.0078250   1.0078250   1.0078250
 NucSpn=           1           1           1           1           1           1           1           1           1           1
 AtZEff=   0.0000000   0.0000000   0.0000000   0.0000000   0.0000000   0.0000000   0.0000000   0.0000000   0.0000000   0.0000000
 NQMom=    0.0000000   0.0000000   0.0000000   0.0000000   0.0000000   0.0000000   0.0000000   0.0000000   0.0000000   0.0000000
 NMagM=    2.7928460   2.7928460   2.7928460   2.7928460   2.7928460   2.7928460   2.7928460   2.7928460   2.7928460   2.7928460
 AtZNuc=   1.0000000   1.0000000   1.0000000   1.0000000   1.0000000   1.0000000   1.0000000   1.0000000   1.0000000   1.0000000

  Atom        61          62          63          64          65          66          67          68          69          70
 IAtWgt=           1           1           1           1           1           1           1           1           1           1
 AtmWgt=   1.0078250   1.0078250   1.0078250   1.0078250   1.0078250   1.0078250   1.0078250   1.0078250   1.0078250   1.0078250
 NucSpn=           1           1           1           1           1           1           1           1           1           1
 AtZEff=   0.0000000   0.0000000   0.0000000   0.0000000   0.0000000   0.0000000   0.0000000   0.0000000   0.0000000   0.0000000
 NQMom=    0.0000000   0.0000000   0.0000000   0.0000000   0.0000000   0.0000000   0.0000000   0.0000000   0.0000000   0.0000000
 NMagM=    2.7928460   2.7928460   2.7928460   2.7928460   2.7928460   2.7928460   2.7928460   2.7928460   2.7928460   2.7928460
 AtZNuc=   1.0000000   1.0000000   1.0000000   1.0000000   1.0000000   1.0000000   1.0000000   1.0000000   1.0000000   1.0000000

  Atom        71          72          73          74          75          76          77
 IAtWgt=           1           1           1           1           1           1           1
 AtmWgt=   1.0078250   1.0078250   1.0078250   1.0078250   1.0078250   1.0078250   1.0078250
 NucSpn=           1           1           1           1           1           1           1
 AtZEff=   0.0000000   0.0000000   0.0000000   0.0000000   0.0000000   0.0000000   0.0000000
 NQMom=    0.0000000   0.0000000   0.0000000   0.0000000   0.0000000   0.0000000   0.0000000
 NMagM=    2.7928460   2.7928460   2.7928460   2.7928460   2.7928460   2.7928460   2.7928460
 AtZNuc=   1.0000000   1.0000000   1.0000000   1.0000000   1.0000000   1.0000000   1.0000000
 Leave Link  101 at Mon Feb 29 09:22:56 2016, MaxMem=  2147483648 cpu:         2.6
 (Enter /nas02/apps/gaussian-09d01/em64t/g09/l103.exe)

 GradGradGradGradGradGradGradGradGradGradGradGradGradGradGradGradGradGrad
 Berny optimization.
 Initialization pass.
                       ----------------------------
                       !    Initial Parameters    !
                       ! (Angstroms and Degrees)  !
 ----------------------                            ----------------------
 !      Name          Value   Derivative information (Atomic Units)     !
 ------------------------------------------------------------------------
 !       B1          1.8267   calculate D2E/DX2 analytically            !
 !       B2          1.2165   calculate D2E/DX2 analytically            !
 !       B3          1.95     calculate D2E/DX2 analytically            !
 !       B4          1.9499   calculate D2E/DX2 analytically            !
 !       B5          1.9499   calculate D2E/DX2 analytically            !
 !       B6          1.95     calculate D2E/DX2 analytically            !
 !       B7          2.4614   calculate D2E/DX2 analytically            !
 !       B8          2.4726   calculate D2E/DX2 analytically            !
 !       B9          2.4661   calculate D2E/DX2 analytically            !
 !       B10         2.4582   calculate D2E/DX2 analytically            !
 !       B11         1.3641   calculate D2E/DX2 analytically            !
 !       B12         1.4774   calculate D2E/DX2 analytically            !
 !       B13         1.3709   calculate D2E/DX2 analytically            !
 !       B14         1.3567   calculate D2E/DX2 analytically            !
 !       B15         1.5002   calculate D2E/DX2 analytically            !
 !       B16         1.5097   calculate D2E/DX2 analytically            !
 !       B17         1.5661   calculate D2E/DX2 analytically            !
 !       B18         1.5177   calculate D2E/DX2 analytically            !
 !       B19         1.3522   calculate D2E/DX2 analytically            !
 !       B20         1.2548   calculate D2E/DX2 analytically            !
 !       B21         1.3785   calculate D2E/DX2 analytically            !
 !       B22         1.4511   calculate D2E/DX2 analytically            !
 !       B23         1.3916   calculate D2E/DX2 analytically            !
 !       B24         1.361    calculate D2E/DX2 analytically            !
 !       B25         1.5031   calculate D2E/DX2 analytically            !
 !       B26         1.4488   calculate D2E/DX2 analytically            !
 !       B27         1.3655   calculate D2E/DX2 analytically            !
 !       B28         1.376    calculate D2E/DX2 analytically            !
 !       B29         1.4531   calculate D2E/DX2 analytically            !
 !       B30         1.3923   calculate D2E/DX2 analytically            !
 !       B31         1.3609   calculate D2E/DX2 analytically            !
 !       B32         1.5025   calculate D2E/DX2 analytically            !
 !       B33         1.4485   calculate D2E/DX2 analytically            !
 !       B34         1.3657   calculate D2E/DX2 analytically            !
 !       B35         1.3706   calculate D2E/DX2 analytically            !
 !       B36         1.4681   calculate D2E/DX2 analytically            !
 !       B37         1.3756   calculate D2E/DX2 analytically            !
 !       B38         1.4778   calculate D2E/DX2 analytically            !
 !       B39         1.5026   calculate D2E/DX2 analytically            !
 !       B40         1.5007   calculate D2E/DX2 analytically            !
 !       B41         1.566    calculate D2E/DX2 analytically            !
 !       B42         1.5378   calculate D2E/DX2 analytically            !
 !       B43         1.2334   calculate D2E/DX2 analytically            !
 !       B44         1.3734   calculate D2E/DX2 analytically            !
 !       B45         1.0981   calculate D2E/DX2 analytically            !
 !       B46         1.0928   calculate D2E/DX2 analytically            !
 !       B47         1.0984   calculate D2E/DX2 analytically            !
 !       B48         1.0936   calculate D2E/DX2 analytically            !
 !       B49         1.097    calculate D2E/DX2 analytically            !
 !       B50         1.0995   calculate D2E/DX2 analytically            !
 !       B51         1.0928   calculate D2E/DX2 analytically            !
 !       B52         1.0929   calculate D2E/DX2 analytically            !
 !       B53         1.097    calculate D2E/DX2 analytically            !
 !       B54         1.0985   calculate D2E/DX2 analytically            !
 !       B55         1.0842   calculate D2E/DX2 analytically            !
 !       B56         1.0867   calculate D2E/DX2 analytically            !
 !       B57         1.0932   calculate D2E/DX2 analytically            !
 !       B58         1.0988   calculate D2E/DX2 analytically            !
 !       B59         1.0968   calculate D2E/DX2 analytically            !
 !       B60         1.0931   calculate D2E/DX2 analytically            !
 !       B61         1.0983   calculate D2E/DX2 analytically            !
 !       B62         1.0982   calculate D2E/DX2 analytically            !
 !       B63         1.0957   calculate D2E/DX2 analytically            !
 !       B64         1.0954   calculate D2E/DX2 analytically            !
 !       B65         1.097    calculate D2E/DX2 analytically            !
 !       B66         1.0931   calculate D2E/DX2 analytically            !
 !       B67         1.0849   calculate D2E/DX2 analytically            !
 !       B68         1.0826   calculate D2E/DX2 analytically            !
 !       B69         1.0825   calculate D2E/DX2 analytically            !
 !       B70         1.0817   calculate D2E/DX2 analytically            !
 !       B71         1.0866   calculate D2E/DX2 analytically            !
 !       B72         1.084    calculate D2E/DX2 analytically            !
 !       B73         1.0878   calculate D2E/DX2 analytically            !
 !       B74         1.0883   calculate D2E/DX2 analytically            !
 !       B75         0.987    calculate D2E/DX2 analytically            !
 !       B76         0.9926   calculate D2E/DX2 analytically            !
 !       A1        115.5146   calculate D2E/DX2 analytically            !
 !       A2         89.999    calculate D2E/DX2 analytically            !
 !       A3         90.0003   calculate D2E/DX2 analytically            !
 !       A4         89.9999   calculate D2E/DX2 analytically            !
 !       A5         89.9996   calculate D2E/DX2 analytically            !
 !       A6        101.9494   calculate D2E/DX2 analytically            !
 !       A7        100.6331   calculate D2E/DX2 analytically            !
 !       A8        100.4375   calculate D2E/DX2 analytically            !
 !       A9        100.1218   calculate D2E/DX2 analytically            !
 !       A10       129.7004   calculate D2E/DX2 analytically            !
 !       A11       113.4201   calculate D2E/DX2 analytically            !
 !       A12       106.1372   calculate D2E/DX2 analytically            !
 !       A13        96.0028   calculate D2E/DX2 analytically            !
 !       A14       129.6379   calculate D2E/DX2 analytically            !
 !       A15       125.1168   calculate D2E/DX2 analytically            !
 !       A16       115.8786   calculate D2E/DX2 analytically            !
 !       A17       112.7565   calculate D2E/DX2 analytically            !
 !       A18       112.9849   calculate D2E/DX2 analytically            !
 !       A19       123.7601   calculate D2E/DX2 analytically            !
 !       A20       129.3276   calculate D2E/DX2 analytically            !
 !       A21       113.94     calculate D2E/DX2 analytically            !
 !       A22       105.8474   calculate D2E/DX2 analytically            !
 !       A23        27.9257   calculate D2E/DX2 analytically            !
 !       A24       126.0167   calculate D2E/DX2 analytically            !
 !       A25       131.0141   calculate D2E/DX2 analytically            !
 !       A26       126.8962   calculate D2E/DX2 analytically            !
 !       A27       129.0473   calculate D2E/DX2 analytically            !
 !       A28       113.7637   calculate D2E/DX2 analytically            !
 !       A29       105.8732   calculate D2E/DX2 analytically            !
 !       A30        28.2811   calculate D2E/DX2 analytically            !
 !       A31       125.9405   calculate D2E/DX2 analytically            !
 !       A32       131.1179   calculate D2E/DX2 analytically            !
 !       A33       127.0052   calculate D2E/DX2 analytically            !
 !       A34       127.4835   calculate D2E/DX2 analytically            !
 !       A35       113.1944   calculate D2E/DX2 analytically            !
 !       A36       106.1141   calculate D2E/DX2 analytically            !
 !       A37       106.2381   calculate D2E/DX2 analytically            !
 !       A38       125.0041   calculate D2E/DX2 analytically            !
 !       A39       128.9258   calculate D2E/DX2 analytically            !
 !       A40       112.5305   calculate D2E/DX2 analytically            !
 !       A41       109.8774   calculate D2E/DX2 analytically            !
 !       A42       122.7399   calculate D2E/DX2 analytically            !
 !       A43       115.595    calculate D2E/DX2 analytically            !
 !       A44       111.4614   calculate D2E/DX2 analytically            !
 !       A45       111.5639   calculate D2E/DX2 analytically            !
 !       A46       111.5242   calculate D2E/DX2 analytically            !
 !       A47       108.5419   calculate D2E/DX2 analytically            !
 !       A48       109.036    calculate D2E/DX2 analytically            !
 !       A49       111.3313   calculate D2E/DX2 analytically            !
 !       A50       111.3427   calculate D2E/DX2 analytically            !
 !       A51       112.873    calculate D2E/DX2 analytically            !
 !       A52       110.7439   calculate D2E/DX2 analytically            !
 !       A53       111.4457   calculate D2E/DX2 analytically            !
 !       A54       123.6234   calculate D2E/DX2 analytically            !
 !       A55       120.1782   calculate D2E/DX2 analytically            !
 !       A56       112.7957   calculate D2E/DX2 analytically            !
 !       A57       111.5232   calculate D2E/DX2 analytically            !
 !       A58       110.7323   calculate D2E/DX2 analytically            !
 !       A59       111.1561   calculate D2E/DX2 analytically            !
 !       A60       111.6113   calculate D2E/DX2 analytically            !
 !       A61       111.8866   calculate D2E/DX2 analytically            !
 !       A62       110.0518   calculate D2E/DX2 analytically            !
 !       A63       109.427    calculate D2E/DX2 analytically            !
 !       A64       110.4597   calculate D2E/DX2 analytically            !
 !       A65       109.946    calculate D2E/DX2 analytically            !
 !       A66       147.9465   calculate D2E/DX2 analytically            !
 !       A67       145.4879   calculate D2E/DX2 analytically            !
 !       A68       147.7598   calculate D2E/DX2 analytically            !
 !       A69       146.8733   calculate D2E/DX2 analytically            !
 !       A70       120.1223   calculate D2E/DX2 analytically            !
 !       A71       123.7097   calculate D2E/DX2 analytically            !
 !       A72       116.6159   calculate D2E/DX2 analytically            !
 !       A73       116.5201   calculate D2E/DX2 analytically            !
 !       A74       115.0489   calculate D2E/DX2 analytically            !
 !       A75       116.1308   calculate D2E/DX2 analytically            !
 !       D1       -159.714    calculate D2E/DX2 analytically            !
 !       D2        110.3529   calculate D2E/DX2 analytically            !
 !       D3         20.0799   calculate D2E/DX2 analytically            !
 !       D4        -71.07     calculate D2E/DX2 analytically            !
 !       D5        -97.7512   calculate D2E/DX2 analytically            !
 !       D6         80.7776   calculate D2E/DX2 analytically            !
 !       D7        -97.7222   calculate D2E/DX2 analytically            !
 !       D8        -83.0713   calculate D2E/DX2 analytically            !
 !       D9         96.4525   calculate D2E/DX2 analytically            !
 !       D10      -173.7061   calculate D2E/DX2 analytically            !
 !       D11         0.9438   calculate D2E/DX2 analytically            !
 !       D12         7.6603   calculate D2E/DX2 analytically            !
 !       D13       178.6336   calculate D2E/DX2 analytically            !
 !       D14       176.7373   calculate D2E/DX2 analytically            !
 !       D15      -109.099    calculate D2E/DX2 analytically            !
 !       D16      -122.3566   calculate D2E/DX2 analytically            !
 !       D17      -146.0322   calculate D2E/DX2 analytically            !
 !       D18        35.0709   calculate D2E/DX2 analytically            !
 !       D19        80.4312   calculate D2E/DX2 analytically            !
 !       D20       178.6391   calculate D2E/DX2 analytically            !
 !       D21        -1.4169   calculate D2E/DX2 analytically            !
 !       D22      -173.7161   calculate D2E/DX2 analytically            !
 !       D23      -179.2015   calculate D2E/DX2 analytically            !
 !       D24      -177.1664   calculate D2E/DX2 analytically            !
 !       D25       -14.3596   calculate D2E/DX2 analytically            !
 !       D26        98.3143   calculate D2E/DX2 analytically            !
 !       D27      -178.082    calculate D2E/DX2 analytically            !
 !       D28         1.028    calculate D2E/DX2 analytically            !
 !       D29       175.1592   calculate D2E/DX2 analytically            !
 !       D30      -178.8815   calculate D2E/DX2 analytically            !
 !       D31       178.7126   calculate D2E/DX2 analytically            !
 !       D32       -10.6166   calculate D2E/DX2 analytically            !
 !       D33        82.6548   calculate D2E/DX2 analytically            !
 !       D34       177.4096   calculate D2E/DX2 analytically            !
 !       D35        -2.5437   calculate D2E/DX2 analytically            !
 !       D36         2.8707   calculate D2E/DX2 analytically            !
 !       D37       178.7275   calculate D2E/DX2 analytically            !
 !       D38      -177.6463   calculate D2E/DX2 analytically            !
 !       D39      -184.0      calculate D2E/DX2 analytically            !
 !       D40       176.4002   calculate D2E/DX2 analytically            !
 !       D41      -104.623    calculate D2E/DX2 analytically            !
 !       D42        73.4206   calculate D2E/DX2 analytically            !
 !       D43      -120.9319   calculate D2E/DX2 analytically            !
 !       D44        -0.9006   calculate D2E/DX2 analytically            !
 !       D45       118.9308   calculate D2E/DX2 analytically            !
 !       D46      -161.9728   calculate D2E/DX2 analytically            !
 !       D47       -47.1524   calculate D2E/DX2 analytically            !
 !       D48        -2.3428   calculate D2E/DX2 analytically            !
 !       D49       115.7885   calculate D2E/DX2 analytically            !
 !       D50        13.4487   calculate D2E/DX2 analytically            !
 !       D51       133.2619   calculate D2E/DX2 analytically            !
 !       D52      -107.2111   calculate D2E/DX2 analytically            !
 !       D53        -2.2699   calculate D2E/DX2 analytically            !
 !       D54       179.2443   calculate D2E/DX2 analytically            !
 !       D55        14.5857   calculate D2E/DX2 analytically            !
 !       D56      -106.1841   calculate D2E/DX2 analytically            !
 !       D57       134.2247   calculate D2E/DX2 analytically            !
 !       D58       179.3536   calculate D2E/DX2 analytically            !
 !       D59       -61.2646   calculate D2E/DX2 analytically            !
 !       D60        59.5267   calculate D2E/DX2 analytically            !
 !       D61       143.1958   calculate D2E/DX2 analytically            !
 !       D62        26.0449   calculate D2E/DX2 analytically            !
 !       D63       -61.8996   calculate D2E/DX2 analytically            !
 !       D64        57.8963   calculate D2E/DX2 analytically            !
 !       D65      -174.8246   calculate D2E/DX2 analytically            !
 !       D66      -171.8132   calculate D2E/DX2 analytically            !
 !       D67       174.8879   calculate D2E/DX2 analytically            !
 !       D68      -176.0373   calculate D2E/DX2 analytically            !
 !       D69      -179.7622   calculate D2E/DX2 analytically            !
 !       D70        -1.1861   calculate D2E/DX2 analytically            !
 !       D71       170.4628   calculate D2E/DX2 analytically            !
 !       D72       165.6468   calculate D2E/DX2 analytically            !
 !       D73      -178.6839   calculate D2E/DX2 analytically            !
 !       D74         4.2596   calculate D2E/DX2 analytically            !
 ------------------------------------------------------------------------
 Trust Radius=3.00D-01 FncErr=1.00D-07 GrdErr=1.00D-07
 Number of steps in this run=      2 maximum allowed number of steps=      2.
 GradGradGradGradGradGradGradGradGradGradGradGradGradGradGradGradGradGrad

 Leave Link  103 at Mon Feb 29 09:22:57 2016, MaxMem=  2147483648 cpu:         0.1
 (Enter /nas02/apps/gaussian-09d01/em64t/g09/l202.exe)
 Stoichiometry    C34H32FeN4O6(2+)
 Framework group  C1[X(C34H32FeN4O6)]
 Deg. of freedom   225
 Full point group                 C1      NOp   1
 Largest Abelian subgroup         C1      NOp   1
 Largest concise Abelian subgroup C1      NOp   1
                         Standard orientation:                         
 ---------------------------------------------------------------------
 Center     Atomic      Atomic             Coordinates (Angstroms)
 Number     Number       Type             X           Y           Z
 ---------------------------------------------------------------------
      1         26           0        1.058641   -0.045990    0.001530
      2          8           0        1.258549   -0.022854    1.817125
      3          8           0        1.772892    0.980020    2.274920
      4          7           0       -0.312948   -1.421746    0.170114
      5          7           0        2.426539   -1.429270   -0.131467
      6          7           0        2.425283    1.334712   -0.166537
      7          7           0       -0.342956    1.302763    0.138679
      8          6           0       -2.383057   -0.071845    0.054051
      9          6           0        1.099992   -3.438394    0.432054
     10          6           0        4.396749   -0.056703   -0.693777
     11          6           0        1.066772    3.340348    0.251197
     12          6           0       -1.671236   -1.299044    0.199449
     13          6           0       -2.369457   -2.568774    0.487351
     14          6           0       -1.389493   -3.511117    0.663118
     15          6           0       -0.105007   -2.815040    0.440447
     16          6           0       -1.511802   -4.966943    1.004233
     17          6           0       -3.862622   -2.721250    0.650220
     18          6           0       -4.700714   -2.695040   -0.672505
     19          6           0       -5.753512   -1.601884   -0.678870
     20          8           0       -6.877289   -1.954957   -1.342882
     21          8           0       -5.594798   -0.477767   -0.144295
     22          6           0        2.318330   -2.787724    0.076091
     23          6           0        3.552732   -3.517517   -0.146142
     24          6           0        4.488183   -2.568632   -0.547610
     25          6           0        3.780586   -1.255398   -0.504822
     26          6           0        3.736866   -5.003551   -0.014842
     27          6           0        5.870453   -2.710497   -0.957887
     28          6           0        6.667379   -3.806362   -0.788995
     29          6           0        3.761255    1.199969   -0.467397
     30          6           0        4.491853    2.456057   -0.463872
     31          6           0        3.564272    3.435140   -0.118322
     32          6           0        2.260398    2.727135    0.025036
     33          6           0        5.951358    2.628266   -0.776646
     34          6           0        3.712013    4.864051    0.067542
     35          6           0        4.880497    5.567803    0.134352
     36          6           0       -0.186642    2.660295    0.244070
     37          6           0       -1.460949    3.388958    0.267743
     38          6           0       -2.445776    2.440909    0.114099
     39          6           0       -1.757889    1.133637    0.071442
     40          6           0       -1.599444    4.879036    0.403331
     41          6           0       -3.931268    2.631382    0.018414
     42          6           0       -4.692014    1.289750   -0.252972
     43          6           0       -6.209445    1.539271   -0.250025
     44          8           0       -6.937768    1.210013    0.689318
     45          8           0       -6.705003    2.195302   -1.350175
     46          1           0       -0.985166   -5.206528    1.937537
     47          1           0       -2.555783   -5.262878    1.133312
     48          1           0       -1.089446   -5.602785    0.214415
     49          1           0       -4.061824   -3.666678    1.162543
     50          1           0       -4.231658   -1.934724    1.320038
     51          1           0       -4.059401   -2.523613   -1.548999
     52          1           0       -5.200322   -3.651393   -0.845805
     53          1           0        2.789565   -5.545411    0.044227
     54          1           0        4.280852   -5.405479   -0.878521
     55          1           0        4.313155   -5.258911    0.884813
     56          1           0        6.347515   -4.708574   -0.279863
     57          1           0        7.691522   -3.798235   -1.152231
     58          1           0        6.387431    1.750061   -1.260068
     59          1           0        6.537768    2.825231    0.131527
     60          1           0        6.105372    3.474378   -1.457406
     61          1           0       -2.649821    5.181092    0.383137
     62          1           0       -1.179680    5.239655    1.352056
     63          1           0       -1.092006    5.413153   -0.411138
     64          1           0       -4.356654    1.915913   -0.694198
     65          1           0       -4.145910    3.632861   -0.370096
     66          1           0       -4.381836    0.860625   -1.213755
     67          1           0       -4.470200    0.568711    0.538070
     68          1           0       -3.466689   -0.107766    0.016091
     69          1           0        1.135191   -4.497843    0.651721
     70          1           0        1.036976    4.413568    0.389324
     71          1           0        5.446008   -0.042751   -0.956212
     72          1           0        4.861111    6.644287    0.281261
     73          1           0        5.861842    5.111871    0.070667
     74          1           0        2.795060    5.437920    0.182708
     75          1           0        6.320888   -1.852419   -1.453005
     76          1           0       -7.575161   -1.258110   -1.383362
     77          1           0       -6.053627    2.389508   -2.073525
 ---------------------------------------------------------------------
 Rotational constants (GHZ):      0.1021131      0.0520485      0.0360852
 Leave Link  202 at Mon Feb 29 09:22:57 2016, MaxMem=  2147483648 cpu:         0.0
 (Enter /nas02/apps/gaussian-09d01/em64t/g09/l301.exe)
 Standard basis: LANL2DZ (5D, 7F)
 Ernie: Thresh=  0.10000D-02 Tol=  0.10000D-05 Strict=F.
 Ernie:  1 primitive shells out of 806 were deleted.
 There are   484 symmetry adapted cartesian basis functions of A   symmetry.
 There are   482 symmetry adapted basis functions of A   symmetry.
   482 basis functions,  1280 primitive gaussians,   484 cartesian basis functions
   163 alpha electrons      163 beta electrons
       nuclear repulsion energy      5927.3318350891 Hartrees.
 IExCor=  402 DFT=T Ex+Corr=B3LYP ExCW=0 ScaHFX=  0.200000
 ScaDFX=  0.800000  0.720000  1.000000  0.810000 ScalE2=  1.000000  1.000000
 IRadAn=      0 IRanWt=     -1 IRanGd=            0 ICorTp=0 IEmpDi=  4
 NAtoms=   77 NActive=   77 NUniq=   77 SFac= 1.00D+00 NAtFMM=   60 NAOKFM=T Big=T
 Integral buffers will be    131072 words long.
 Raffenetti 2 integral format.
 Two-electron integral symmetry is turned on.
 Leave Link  301 at Mon Feb 29 09:22:57 2016, MaxMem=  2147483648 cpu:         0.6
 (Enter /nas02/apps/gaussian-09d01/em64t/g09/l302.exe)
 NPDir=0 NMtPBC=     1 NCelOv=     1 NCel=       1 NClECP=     1 NCelD=      1
         NCelK=      1 NCelE2=     1 NClLst=     1 CellRange=     0.0.
 One-electron integrals computed using PRISM.
   1 Symmetry operations used in ECPInt.
 ECPInt:  NShTT=   42778 NPrTT=  325758 LenC2=   34983 LenP2D=  134424.
 LDataN:  DoStor=T MaxTD1= 4 Len=   56
 NBasis=   482 RedAO= T EigKep=  4.09D-04  NBF=   482
 NBsUse=   482 1.00D-06 EigRej= -1.00D+00 NBFU=   482
 Precomputing XC quadrature grid using
 IXCGrd= 4 IRadAn=           0 IRanWt=          -1 IRanGd=           0 AccXCQ= 0.00D+00.
 Generated NRdTot=       0 NPtTot=           0 NUsed=           0 NTot=          32
 NSgBfM=   468   469   469   469   469 MxSgAt=    77 MxSgA2=    77.
 Leave Link  302 at Mon Feb 29 09:22:59 2016, MaxMem=  2147483648 cpu:        15.9
 (Enter /nas02/apps/gaussian-09d01/em64t/g09/l303.exe)
 DipDrv:  MaxL=1.
 Leave Link  303 at Mon Feb 29 09:22:59 2016, MaxMem=  2147483648 cpu:         1.5
 (Enter /nas02/apps/gaussian-09d01/em64t/g09/l401.exe)
 Initial guess from the checkpoint file:  "MBO_L_-90.chk"
 B after Tr=     2.012945   -0.227285   -0.152667
         Rot=    0.834995    0.000890   -0.031563   -0.549351 Ang=  66.77 deg.
 Guess basis will be translated and rotated to current coordinates.
 JPrj=2 DoOrth=T DoCkMO=T.
 Leave Link  401 at Mon Feb 29 09:23:01 2016, MaxMem=  2147483648 cpu:         8.6
 (Enter /nas02/apps/gaussian-09d01/em64t/g09/l502.exe)
 Closed shell SCF:
 Using DIIS extrapolation, IDIIS=  1040.
 Integral symmetry usage will be decided dynamically.
 IVT=      729022 IEndB=      729022 NGot=  2147483648 MDV=  2147006007
 LenX=  2147006007 LenY=  2146771267
 Requested convergence on RMS density matrix=1.00D-08 within 128 cycles.
 Requested convergence on MAX density matrix=1.00D-06.
 Requested convergence on             energy=1.00D-06.
 No special actions if energy rises.
 Fock matrices will be formed incrementally for  20 cycles.

 Cycle   1  Pass 1  IDiag  1:
 FoFJK:  IHMeth= 1 ICntrl=       0 DoSepK=F KAlg= 0 I1Cent=   0 FoldK=F
 IRaf= 990000000 NMat=   1 IRICut=       1 DoRegI=T DoRafI=F ISym2E= 0.
 FoFCou: FMM=T IPFlag=           0 FMFlag=      100000 FMFlg1=        2001
         NFxFlg=           0 DoJE=F BraDBF=F KetDBF=F FulRan=T
         wScrn=  0.000000 ICntrl=       0 IOpCl=  0 I1Cent=           0 NGrid=           0
         NMat0=    1 NMatS0=      1 NMatT0=    0 NMatD0=    1 NMtDS0=    0 NMtDT0=    0
 Symmetry not used in FoFCou.
 FMM levels:  10  Number of levels for PrismC:   9
 E= -2103.53843637831    
 DIIS: error= 3.39D-02 at cycle   1 NSaved=   1.
 NSaved= 1 IEnMin= 1 EnMin= -2103.53843637831     IErMin= 1 ErrMin= 3.39D-02
 ErrMax= 3.39D-02  0.00D+00 EMaxC= 1.00D-01 BMatC= 1.01D+00 BMatP= 1.01D+00
 IDIUse=3 WtCom= 6.61D-01 WtEn= 3.39D-01
 Coeff-Com:  0.100D+01
 Coeff-En:   0.100D+01
 Coeff:      0.100D+01
 Gap=     0.044 Goal=   None    Shift=    0.000
 GapD=    0.044 DampG=0.250 DampE=0.250 DampFc=0.1250 IDamp=-1.
 Damping current iteration by 1.25D-01
 RMSDP=8.80D-03 MaxDP=6.81D-01              OVMax= 9.84D-01

 Cycle   2  Pass 1  IDiag  1:
 RMSU=  1.07D-03    CP:  9.89D-01
 E= -2103.97122505043     Delta-E=       -0.432788672114 Rises=F Damp=T
 DIIS: error= 2.76D-02 at cycle   2 NSaved=   2.
 NSaved= 2 IEnMin= 2 EnMin= -2103.97122505043     IErMin= 2 ErrMin= 2.76D-02
 ErrMax= 2.76D-02  0.00D+00 EMaxC= 1.00D-01 BMatC= 7.31D-01 BMatP= 1.01D+00
 IDIUse=3 WtCom= 7.24D-01 WtEn= 2.76D-01
 Coeff-Com: -0.186D+01 0.286D+01
 Coeff-En:   0.000D+00 0.100D+01
 Coeff:     -0.134D+01 0.234D+01
 Gap=     0.263 Goal=   None    Shift=    0.000
 RMSDP=1.55D-02 MaxDP=1.22D+00 DE=-4.33D-01 OVMax= 9.79D-01

 Cycle   3  Pass 1  IDiag  1:
 RMSU=  1.48D-02    CP:  9.28D-01  3.00D+00
 E= -2087.28588087427     Delta-E=       16.685344176161 Rises=F Damp=F
 DIIS: error= 1.61D-01 at cycle   3 NSaved=   3.
 NSaved= 3 IEnMin= 2 EnMin= -2103.97122505043     IErMin= 2 ErrMin= 2.76D-02
 ErrMax= 1.61D-01  0.00D+00 EMaxC= 1.00D-01 BMatC= 9.64D+00 BMatP= 7.31D-01
 IDIUse=2 WtCom= 0.00D+00 WtEn= 1.00D+00
 Coeff-En:   0.000D+00 0.943D+00 0.566D-01
 Coeff:      0.000D+00 0.943D+00 0.566D-01
 Gap=    -0.364 Goal=   None    Shift=    0.000
 RMSDP=1.51D-02 MaxDP=1.24D+00 DE= 1.67D+01 OVMax= 9.72D-01

 Cycle   4  Pass 1  IDiag  1:
 RMSU=  5.39D-03    CP:  9.10D-01  3.00D+00  4.89D-02
 E= -2103.72992532809     Delta-E=      -16.444044453825 Rises=F Damp=F
 DIIS: error= 1.02D-01 at cycle   4 NSaved=   4.
 NSaved= 4 IEnMin= 2 EnMin= -2103.97122505043     IErMin= 2 ErrMin= 2.76D-02
 ErrMax= 1.02D-01  0.00D+00 EMaxC= 1.00D-01 BMatC= 3.16D+00 BMatP= 7.31D-01
 IDIUse=2 WtCom= 0.00D+00 WtEn= 1.00D+00
 Coeff-En:   0.000D+00 0.000D+00 0.271D+00 0.729D+00
 Coeff:      0.000D+00 0.000D+00 0.271D+00 0.729D+00
 Gap=    -0.093 Goal=   None    Shift=    0.000
 RMSDP=5.47D-03 MaxDP=6.84D-01 DE=-1.64D+01 OVMax= 6.26D-01

 Cycle   5  Pass 1  IDiag  1:
 RMSU=  4.81D-03    CP:  9.11D-01  3.00D+00  9.02D-02  5.32D-01
 E= -2104.19870807499     Delta-E=       -0.468782746898 Rises=F Damp=F
 DIIS: error= 1.20D-01 at cycle   5 NSaved=   5.
 NSaved= 5 IEnMin= 5 EnMin= -2104.19870807499     IErMin= 2 ErrMin= 2.76D-02
 ErrMax= 1.20D-01  0.00D+00 EMaxC= 1.00D-01 BMatC= 3.36D+00 BMatP= 7.31D-01
 IDIUse=2 WtCom= 0.00D+00 WtEn= 1.00D+00
 EnCoef did    27 forward-backward iterations
 Coeff-En:   0.000D+00 0.000D+00 0.906D-01 0.537D+00 0.372D+00
 Coeff:      0.000D+00 0.000D+00 0.906D-01 0.537D+00 0.372D+00
 Gap=     0.036 Goal=   None    Shift=    0.000
 RMSDP=6.30D-03 MaxDP=6.72D-01 DE=-4.69D-01 OVMax= 9.26D-01

 Cycle   6  Pass 1  IDiag  1:
 RMSU=  5.26D-03    CP:  9.19D-01  3.00D+00  1.59D-01  5.60D-01  3.14D-01
 E= -2101.90995335056     Delta-E=        2.288754724427 Rises=F Damp=F
 DIIS: error= 1.04D-01 at cycle   6 NSaved=   6.
 NSaved= 6 IEnMin= 5 EnMin= -2104.19870807499     IErMin= 2 ErrMin= 2.76D-02
 ErrMax= 1.04D-01  0.00D+00 EMaxC= 1.00D-01 BMatC= 3.91D+00 BMatP= 7.31D-01
 IDIUse=2 WtCom= 0.00D+00 WtEn= 1.00D+00
 EnCoef did     4 forward-backward iterations
 Coeff-En:   0.000D+00 0.000D+00 0.000D+00 0.385D+00 0.446D+00 0.169D+00
 Coeff:      0.000D+00 0.000D+00 0.000D+00 0.385D+00 0.446D+00 0.169D+00
 Gap=    -0.115 Goal=   None    Shift=    0.000
 RMSDP=5.19D-03 MaxDP=3.93D-01 DE= 2.29D+00 OVMax= 6.99D-01

 Cycle   7  Pass 1  IDiag  1:
 RMSU=  3.70D-03    CP:  9.16D-01  3.00D+00  1.24D-01  5.70D-01  4.52D-01
                    CP:  3.28D-01
 E= -2106.23738248046     Delta-E=       -4.327429129900 Rises=F Damp=F
 DIIS: error= 4.70D-02 at cycle   7 NSaved=   7.
 NSaved= 7 IEnMin= 7 EnMin= -2106.23738248046     IErMin= 2 ErrMin= 2.76D-02
 ErrMax= 4.70D-02  0.00D+00 EMaxC= 1.00D-01 BMatC= 7.74D-01 BMatP= 7.31D-01
 IDIUse=3 WtCom= 5.30D-01 WtEn= 4.70D-01
 EnCoef did     7 forward-backward iterations
 Coeff-Com: -0.888D+00 0.119D+01-0.265D-01 0.109D+00 0.161D+00 0.961D-01
 Coeff-Com:  0.354D+00
 Coeff-En:   0.000D+00 0.000D+00 0.000D+00 0.324D+00 0.246D+00 0.398D-01
 Coeff-En:   0.390D+00
 Coeff:     -0.471D+00 0.633D+00-0.140D-01 0.210D+00 0.201D+00 0.696D-01
 Coeff:      0.371D+00
 Gap=    -0.005 Goal=   None    Shift=    0.000
 RMSDP=4.43D-03 MaxDP=3.12D-01 DE=-4.33D+00 OVMax= 6.53D-01

 Cycle   8  Pass 1  IDiag  1:
 RMSU=  2.92D-03    CP:  9.14D-01  3.00D+00  7.16D-02  6.93D-01  4.15D-01
                    CP:  2.36D-01  1.52D-01
 E= -2105.88229870277     Delta-E=        0.355083777694 Rises=F Damp=F
 DIIS: error= 5.12D-02 at cycle   8 NSaved=   8.
 NSaved= 8 IEnMin= 7 EnMin= -2106.23738248046     IErMin= 2 ErrMin= 2.76D-02
 ErrMax= 5.12D-02  0.00D+00 EMaxC= 1.00D-01 BMatC= 9.70D-01 BMatP= 7.31D-01
 IDIUse=2 WtCom= 0.00D+00 WtEn= 1.00D+00
 EnCoef did    13 forward-backward iterations
 Coeff-En:   0.000D+00 0.000D+00 0.000D+00 0.809D-01 0.146D-01 0.000D+00
 Coeff-En:   0.528D+00 0.377D+00
 Coeff:      0.000D+00 0.000D+00 0.000D+00 0.809D-01 0.146D-01 0.000D+00
 Coeff:      0.528D+00 0.377D+00
 Gap=    -0.013 Goal=   None    Shift=    0.000
 RMSDP=4.29D-03 MaxDP=3.85D-01 DE= 3.55D-01 OVMax= 8.50D-01

 Cycle   9  Pass 1  IDiag  1:
 RMSU=  2.81D-03    CP:  9.11D-01  3.00D+00  5.27D-02  6.58D-01  4.46D-01
                    CP: -1.88D-03  2.01D-01 -1.57D-02
 E= -2106.31823186407     Delta-E=       -0.435933161297 Rises=F Damp=F
 DIIS: error= 4.78D-02 at cycle   9 NSaved=   9.
 NSaved= 9 IEnMin= 9 EnMin= -2106.31823186407     IErMin= 2 ErrMin= 2.76D-02
 ErrMax= 4.78D-02  0.00D+00 EMaxC= 1.00D-01 BMatC= 6.94D-01 BMatP= 7.31D-01
 IDIUse=3 WtCom= 5.30D-01 WtEn= 4.70D-01
 EnCoef did     5 forward-backward iterations
 Coeff-Com: -0.350D+00 0.450D+00 0.210D-02 0.240D-01 0.979D-02 0.277D-01
 Coeff-Com:  0.373D+00 0.274D+00 0.189D+00
 Coeff-En:   0.000D+00 0.000D+00 0.000D+00 0.128D-01 0.000D+00 0.000D+00
 Coeff-En:   0.423D+00 0.344D+00 0.220D+00
 Coeff:     -0.185D+00 0.238D+00 0.111D-02 0.187D-01 0.519D-02 0.147D-01
 Coeff:      0.396D+00 0.307D+00 0.204D+00
 Gap=     0.032 Goal=   None    Shift=    0.000
 RMSDP=3.35D-03 MaxDP=3.14D-01 DE=-4.36D-01 OVMax= 7.87D-01

 Cycle  10  Pass 1  IDiag  1:
 RMSU=  2.04D-03    CP:  9.17D-01  3.00D+00  7.45D-02  6.48D-01  3.65D-01
                    CP:  2.51D-01  3.31D-01  2.38D-01  2.67D-01
 E= -2106.90401810342     Delta-E=       -0.585786239359 Rises=F Damp=F
 DIIS: error= 5.46D-02 at cycle  10 NSaved=  10.
 NSaved=10 IEnMin=10 EnMin= -2106.90401810342     IErMin= 2 ErrMin= 2.76D-02
 ErrMax= 5.46D-02  0.00D+00 EMaxC= 1.00D-01 BMatC= 5.21D-01 BMatP= 6.94D-01
 IDIUse=3 WtCom= 5.30D-01 WtEn= 4.70D-01
 EnCoef did   100 forward-backward iterations
 Coeff-Com: -0.254D+00 0.310D+00-0.299D-02-0.625D-02 0.317D-01-0.235D-01
 Coeff-Com:  0.307D+00 0.216D+00 0.168D+00 0.253D+00
 Coeff-En:   0.000D+00 0.000D+00 0.000D+00 0.000D+00 0.575D-02 0.000D+00
 Coeff-En:   0.250D+00 0.204D+00 0.217D+00 0.324D+00
 Coeff:     -0.134D+00 0.164D+00-0.159D-02-0.331D-02 0.195D-01-0.125D-01
 Coeff:      0.280D+00 0.211D+00 0.191D+00 0.286D+00
 Gap=     0.028 Goal=   None    Shift=    0.000
 RMSDP=2.32D-03 MaxDP=3.67D-01 DE=-5.86D-01 OVMax= 4.22D-01

 Cycle  11  Pass 1  IDiag  1:
 RMSU=  1.85D-03    CP:  9.18D-01  3.00D+00  7.82D-02  6.19D-01  4.45D-01
                    CP:  1.33D-01  3.72D-01  3.36D-01  2.75D-01  4.41D-01
 E= -2106.90067655023     Delta-E=        0.003341553198 Rises=F Damp=F
 DIIS: error= 6.16D-02 at cycle  11 NSaved=  11.
 NSaved=11 IEnMin=10 EnMin= -2106.90401810342     IErMin= 2 ErrMin= 2.76D-02
 ErrMax= 6.16D-02  0.00D+00 EMaxC= 1.00D-01 BMatC= 4.84D-01 BMatP= 5.21D-01
 IDIUse=3 WtCom= 5.30D-01 WtEn= 4.70D-01
 EnCoef did     3 forward-backward iterations
 Coeff-Com: -0.121D+00 0.156D+00-0.673D-02-0.180D-01-0.298D-02-0.739D-02
 Coeff-Com:  0.175D+00 0.105D+00 0.129D+00 0.343D+00 0.248D+00
 Coeff-En:   0.000D+00 0.000D+00 0.000D+00 0.000D+00 0.000D+00 0.000D+00
 Coeff-En:   0.000D+00 0.000D+00 0.114D-01 0.498D+00 0.490D+00
 Coeff:     -0.641D-01 0.826D-01-0.356D-02-0.951D-02-0.158D-02-0.392D-02
 Coeff:      0.926D-01 0.555D-01 0.738D-01 0.416D+00 0.362D+00
 Gap=     0.037 Goal=   None    Shift=    0.000
 RMSDP=2.06D-03 MaxDP=2.18D-01 DE= 3.34D-03 OVMax= 5.32D-01

 Cycle  12  Pass 1  IDiag  1:
 RMSU=  1.17D-03    CP:  9.17D-01  3.00D+00  6.69D-02  6.47D-01  3.71D-01
                    CP:  1.33D-01  3.63D-01  9.24D-02  4.87D-01  6.17D-01
                    CP:  2.96D-01
 E= -2107.22238234563     Delta-E=       -0.321705795399 Rises=F Damp=F
 DIIS: error= 1.73D-02 at cycle  12 NSaved=  12.
 NSaved=12 IEnMin=12 EnMin= -2107.22238234563     IErMin=12 ErrMin= 1.73D-02
 ErrMax= 1.73D-02  0.00D+00 EMaxC= 1.00D-01 BMatC= 6.71D-02 BMatP= 4.84D-01
 IDIUse=3 WtCom= 8.27D-01 WtEn= 1.73D-01
 EnCoef did     6 forward-backward iterations
 Coeff-Com: -0.625D-01 0.740D-01-0.808D-02-0.215D-01 0.135D-01-0.475D-02
 Coeff-Com:  0.638D-01 0.519D-01-0.572D-02 0.260D+00 0.257D+00 0.382D+00
 Coeff-En:   0.000D+00 0.000D+00 0.000D+00 0.000D+00 0.000D+00 0.000D+00
 Coeff-En:   0.000D+00 0.000D+00 0.000D+00 0.299D+00 0.336D+00 0.365D+00
 Coeff:     -0.517D-01 0.612D-01-0.668D-02-0.177D-01 0.112D-01-0.393D-02
 Coeff:      0.527D-01 0.429D-01-0.473D-02 0.267D+00 0.271D+00 0.379D+00
 Gap=     0.025 Goal=   None    Shift=    0.000
 RMSDP=1.56D-03 MaxDP=1.52D-01 DE=-3.22D-01 OVMax= 3.39D-01

 Cycle  13  Pass 1  IDiag  1:
 RMSU=  5.35D-04    CP:  9.19D-01  3.00D+00  7.91D-02  6.12D-01  4.19D-01
                    CP:  2.11D-01  3.89D-01  2.86D-01  2.81D-01  7.78D-01
                    CP:  4.66D-01  1.47D-01
 E= -2107.31066765978     Delta-E=       -0.088285314151 Rises=F Damp=F
 DIIS: error= 5.18D-03 at cycle  13 NSaved=  13.
 NSaved=13 IEnMin=13 EnMin= -2107.31066765978     IErMin=13 ErrMin= 5.18D-03
 ErrMax= 5.18D-03  0.00D+00 EMaxC= 1.00D-01 BMatC= 1.42D-02 BMatP= 6.71D-02
 IDIUse=3 WtCom= 9.48D-01 WtEn= 5.18D-02
 EnCoef did     2 forward-backward iterations
 Coeff-Com: -0.371D-01 0.460D-01-0.364D-02-0.136D-02 0.445D-02-0.355D-02
 Coeff-Com: -0.353D-02 0.876D-02-0.248D-01 0.995D-02 0.677D-01 0.328D+00
 Coeff-Com:  0.609D+00
 Coeff-En:   0.000D+00 0.000D+00 0.000D+00 0.000D+00 0.000D+00 0.000D+00
 Coeff-En:   0.000D+00 0.000D+00 0.000D+00 0.000D+00 0.355D-02 0.252D+00
 Coeff-En:   0.744D+00
 Coeff:     -0.352D-01 0.436D-01-0.345D-02-0.129D-02 0.422D-02-0.337D-02
 Coeff:     -0.335D-02 0.831D-02-0.235D-01 0.943D-02 0.643D-01 0.324D+00
 Coeff:      0.616D+00
 Gap=     0.045 Goal=   None    Shift=    0.000
 RMSDP=6.02D-04 MaxDP=5.28D-02 DE=-8.83D-02 OVMax= 1.49D-01

 Cycle  14  Pass 1  IDiag  1:
 RMSU=  2.88D-04    CP:  9.19D-01  3.00D+00  7.28D-02  6.20D-01  3.99D-01
                    CP:  1.81D-01  3.76D-01  2.37D-01  3.26D-01  7.69D-01
                    CP:  4.61D-01  4.64D-01  5.53D-01
 E= -2107.33070789869     Delta-E=       -0.020040238915 Rises=F Damp=F
 DIIS: error= 1.59D-03 at cycle  14 NSaved=  14.
 NSaved=14 IEnMin=14 EnMin= -2107.33070789869     IErMin=14 ErrMin= 1.59D-03
 ErrMax= 1.59D-03  0.00D+00 EMaxC= 1.00D-01 BMatC= 2.61D-03 BMatP= 1.42D-02
 IDIUse=3 WtCom= 9.84D-01 WtEn= 1.59D-02
 Coeff-Com: -0.331D-01 0.381D-01-0.118D-02 0.328D-02 0.797D-03-0.118D-02
 Coeff-Com: -0.855D-02 0.397D-02-0.128D-01-0.230D-01 0.160D-01 0.176D+00
 Coeff-Com:  0.418D+00 0.423D+00
 Coeff-En:   0.000D+00 0.000D+00 0.000D+00 0.000D+00 0.000D+00 0.000D+00
 Coeff-En:   0.000D+00 0.000D+00 0.000D+00 0.000D+00 0.000D+00 0.000D+00
 Coeff-En:   0.374D-01 0.963D+00
 Coeff:     -0.325D-01 0.375D-01-0.116D-02 0.323D-02 0.784D-03-0.116D-02
 Coeff:     -0.841D-02 0.391D-02-0.126D-01-0.226D-01 0.158D-01 0.173D+00
 Coeff:      0.412D+00 0.432D+00
 Gap=     0.039 Goal=   None    Shift=    0.000
 RMSDP=2.05D-04 MaxDP=1.21D-02 DE=-2.00D-02 OVMax= 2.60D-02

 Cycle  15  Pass 1  IDiag  1:
 RMSU=  1.45D-04    CP:  9.19D-01  3.00D+00  7.33D-02  6.20D-01  4.01D-01
                    CP:  1.83D-01  3.76D-01  2.39D-01  3.29D-01  7.63D-01
                    CP:  4.54D-01  4.68D-01  7.24D-01  6.22D-01
 E= -2107.33320545974     Delta-E=       -0.002497561047 Rises=F Damp=F
 DIIS: error= 8.89D-04 at cycle  15 NSaved=  15.
 NSaved=15 IEnMin=15 EnMin= -2107.33320545974     IErMin=15 ErrMin= 8.89D-04
 ErrMax= 8.89D-04  0.00D+00 EMaxC= 1.00D-01 BMatC= 5.46D-04 BMatP= 2.61D-03
 IDIUse=3 WtCom= 9.91D-01 WtEn= 8.89D-03
 Coeff-Com: -0.345D-01 0.380D-01-0.193D-04 0.294D-02-0.911D-03-0.179D-03
 Coeff-Com: -0.724D-02 0.240D-02-0.526D-02-0.146D-01 0.237D-02 0.441D-01
 Coeff-Com:  0.132D+00 0.277D+00 0.564D+00
 Coeff-En:   0.000D+00 0.000D+00 0.000D+00 0.000D+00 0.000D+00 0.000D+00
 Coeff-En:   0.000D+00 0.000D+00 0.000D+00 0.000D+00 0.000D+00 0.000D+00
 Coeff-En:   0.000D+00 0.121D+00 0.879D+00
 Coeff:     -0.342D-01 0.376D-01-0.191D-04 0.291D-02-0.903D-03-0.178D-03
 Coeff:     -0.717D-02 0.238D-02-0.522D-02-0.144D-01 0.235D-02 0.437D-01
 Coeff:      0.131D+00 0.276D+00 0.566D+00
 Gap=     0.040 Goal=   None    Shift=    0.000
 RMSDP=9.49D-05 MaxDP=5.94D-03 DE=-2.50D-03 OVMax= 1.14D-02

 Cycle  16  Pass 1  IDiag  1:
 RMSU=  6.70D-05    CP:  9.19D-01  3.00D+00  7.29D-02  6.21D-01  3.97D-01
                    CP:  1.81D-01  3.75D-01  2.37D-01  3.27D-01  7.68D-01
                    CP:  4.56D-01  4.75D-01  7.03D-01  8.07D-01  8.05D-01
 E= -2107.33390010012     Delta-E=       -0.000694640380 Rises=F Damp=F
 DIIS: error= 3.99D-04 at cycle  16 NSaved=  16.
 NSaved=16 IEnMin=16 EnMin= -2107.33390010012     IErMin=16 ErrMin= 3.99D-04
 ErrMax= 3.99D-04  0.00D+00 EMaxC= 1.00D-01 BMatC= 1.26D-04 BMatP= 5.46D-04
 IDIUse=3 WtCom= 9.96D-01 WtEn= 3.99D-03
 Coeff-Com: -0.140D-01 0.153D-01-0.231D-03 0.184D-02-0.518D-03-0.476D-03
 Coeff-Com: -0.264D-02 0.140D-02-0.989D-03-0.177D-02 0.794D-03-0.179D-01
 Coeff-Com: -0.238D-01 0.328D-01 0.326D+00 0.684D+00
 Coeff-En:   0.000D+00 0.000D+00 0.000D+00 0.000D+00 0.000D+00 0.000D+00
 Coeff-En:   0.000D+00 0.000D+00 0.000D+00 0.000D+00 0.000D+00 0.000D+00
 Coeff-En:   0.000D+00 0.000D+00 0.000D+00 0.100D+01
 Coeff:     -0.139D-01 0.152D-01-0.230D-03 0.183D-02-0.516D-03-0.474D-03
 Coeff:     -0.263D-02 0.139D-02-0.985D-03-0.176D-02 0.791D-03-0.178D-01
 Coeff:     -0.237D-01 0.327D-01 0.325D+00 0.686D+00
 Gap=     0.040 Goal=   None    Shift=    0.000
 RMSDP=5.71D-05 MaxDP=6.03D-03 DE=-6.95D-04 OVMax= 6.11D-03

 Cycle  17  Pass 1  IDiag  1:
 RMSU=  4.32D-05    CP:  9.19D-01  3.00D+00  7.28D-02  6.21D-01  3.96D-01
                    CP:  1.80D-01  3.75D-01  2.37D-01  3.25D-01  7.67D-01
                    CP:  4.60D-01  4.76D-01  7.21D-01  8.50D-01  1.02D+00
                    CP:  1.06D+00
 E= -2107.33409956759     Delta-E=       -0.000199467476 Rises=F Damp=F
 DIIS: error= 3.80D-04 at cycle  17 NSaved=  17.
 NSaved=17 IEnMin=17 EnMin= -2107.33409956759     IErMin=17 ErrMin= 3.80D-04
 ErrMax= 3.80D-04  0.00D+00 EMaxC= 1.00D-01 BMatC= 5.75D-05 BMatP= 1.26D-04
 IDIUse=3 WtCom= 9.96D-01 WtEn= 3.80D-03
 Coeff-Com: -0.317D-02 0.394D-02-0.186D-03 0.563D-03 0.271D-03-0.447D-03
 Coeff-Com: -0.798D-03 0.124D-02-0.108D-02 0.277D-02-0.124D-02-0.157D-01
 Coeff-Com: -0.349D-01-0.575D-01 0.288D-01 0.440D+00 0.638D+00
 Coeff-En:   0.000D+00 0.000D+00 0.000D+00 0.000D+00 0.000D+00 0.000D+00
 Coeff-En:   0.000D+00 0.000D+00 0.000D+00 0.000D+00 0.000D+00 0.000D+00
 Coeff-En:   0.000D+00 0.000D+00 0.000D+00 0.000D+00 0.100D+01
 Coeff:     -0.316D-02 0.393D-02-0.185D-03 0.561D-03 0.270D-03-0.445D-03
 Coeff:     -0.795D-03 0.124D-02-0.107D-02 0.276D-02-0.124D-02-0.156D-01
 Coeff:     -0.348D-01-0.573D-01 0.287D-01 0.438D+00 0.639D+00
 Gap=     0.041 Goal=   None    Shift=    0.000
 RMSDP=3.96D-05 MaxDP=4.54D-03 DE=-1.99D-04 OVMax= 4.00D-03

 Cycle  18  Pass 1  IDiag  1:
 RMSU=  2.58D-05    CP:  9.19D-01  3.00D+00  7.27D-02  6.21D-01  3.95D-01
                    CP:  1.79D-01  3.73D-01  2.35D-01  3.25D-01  7.70D-01
                    CP:  4.57D-01  4.78D-01  7.24D-01  8.81D-01  1.09D+00
                    CP:  1.40D+00  9.53D-01
 E= -2107.33418981820     Delta-E=       -0.000090250601 Rises=F Damp=F
 DIIS: error= 1.85D-04 at cycle  18 NSaved=  18.
 NSaved=18 IEnMin=18 EnMin= -2107.33418981820     IErMin=18 ErrMin= 1.85D-04
 ErrMax= 1.85D-04  0.00D+00 EMaxC= 1.00D-01 BMatC= 1.85D-05 BMatP= 5.75D-05
 IDIUse=3 WtCom= 9.98D-01 WtEn= 1.85D-03
 Coeff-Com:  0.429D-04 0.145D-03-0.114D-03-0.116D-03 0.622D-03-0.129D-03
 Coeff-Com: -0.244D-03 0.835D-03-0.121D-02 0.207D-02-0.197D-02-0.446D-02
 Coeff-Com: -0.959D-02-0.494D-01-0.783D-01 0.102D+00 0.451D+00 0.589D+00
 Coeff-En:   0.000D+00 0.000D+00 0.000D+00 0.000D+00 0.000D+00 0.000D+00
 Coeff-En:   0.000D+00 0.000D+00 0.000D+00 0.000D+00 0.000D+00 0.000D+00
 Coeff-En:   0.000D+00 0.000D+00 0.000D+00 0.000D+00 0.000D+00 0.100D+01
 Coeff:      0.428D-04 0.145D-03-0.114D-03-0.115D-03 0.621D-03-0.129D-03
 Coeff:     -0.244D-03 0.833D-03-0.121D-02 0.207D-02-0.197D-02-0.445D-02
 Coeff:     -0.957D-02-0.493D-01-0.781D-01 0.102D+00 0.450D+00 0.589D+00
 Gap=     0.041 Goal=   None    Shift=    0.000
 RMSDP=2.48D-05 MaxDP=3.27D-03 DE=-9.03D-05 OVMax= 3.51D-03

 Cycle  19  Pass 1  IDiag  1:
 RMSU=  1.42D-05    CP:  9.19D-01  3.00D+00  7.27D-02  6.21D-01  3.95D-01
                    CP:  1.79D-01  3.72D-01  2.35D-01  3.22D-01  7.71D-01
                    CP:  4.57D-01  4.80D-01  7.33D-01  8.96D-01  1.14D+00
                    CP:  1.53D+00  1.25D+00  9.20D-01
 E= -2107.33423343169     Delta-E=       -0.000043613498 Rises=F Damp=F
 DIIS: error= 1.35D-04 at cycle  19 NSaved=  19.
 NSaved=19 IEnMin=19 EnMin= -2107.33423343169     IErMin=19 ErrMin= 1.35D-04
 ErrMax= 1.35D-04  0.00D+00 EMaxC= 1.00D-01 BMatC= 3.41D-06 BMatP= 1.85D-05
 IDIUse=3 WtCom= 9.99D-01 WtEn= 1.35D-03
 Coeff-Com:  0.843D-03-0.964D-03 0.760D-05-0.147D-03 0.229D-03 0.312D-05
 Coeff-Com:  0.197D-03 0.319D-03-0.112D-04 0.221D-03-0.902D-03-0.169D-03
 Coeff-Com:  0.519D-02-0.143D-01-0.503D-01-0.495D-01 0.109D+00 0.335D+00
 Coeff-Com:  0.665D+00
 Coeff-En:   0.000D+00 0.000D+00 0.000D+00 0.000D+00 0.000D+00 0.000D+00
 Coeff-En:   0.000D+00 0.000D+00 0.000D+00 0.000D+00 0.000D+00 0.000D+00
 Coeff-En:   0.000D+00 0.000D+00 0.000D+00 0.000D+00 0.000D+00 0.000D+00
 Coeff-En:   0.100D+01
 Coeff:      0.842D-03-0.963D-03 0.759D-05-0.147D-03 0.229D-03 0.312D-05
 Coeff:      0.197D-03 0.319D-03-0.112D-04 0.221D-03-0.901D-03-0.169D-03
 Coeff:      0.518D-02-0.143D-01-0.502D-01-0.494D-01 0.109D+00 0.335D+00
 Coeff:      0.666D+00
 Gap=     0.041 Goal=   None    Shift=    0.000
 RMSDP=1.51D-05 MaxDP=2.37D-03 DE=-4.36D-05 OVMax= 2.24D-03

 Cycle  20  Pass 1  IDiag  1:
 RMSU=  7.96D-06    CP:  9.19D-01  3.00D+00  7.27D-02  6.21D-01  3.95D-01
                    CP:  1.79D-01  3.72D-01  2.36D-01  3.22D-01  7.72D-01
                    CP:  4.56D-01  4.79D-01  7.39D-01  9.06D-01  1.17D+00
                    CP:  1.62D+00  1.39D+00  1.19D+00  1.17D+00
 E= -2107.33424892077     Delta-E=       -0.000015489075 Rises=F Damp=F
 DIIS: error= 1.17D-04 at cycle  20 NSaved=  20.
 NSaved=20 IEnMin=20 EnMin= -2107.33424892077     IErMin=20 ErrMin= 1.17D-04
 ErrMax= 1.17D-04  0.00D+00 EMaxC= 1.00D-01 BMatC= 2.22D-06 BMatP= 3.41D-06
 IDIUse=3 WtCom= 9.99D-01 WtEn= 1.17D-03
 Coeff-Com:  0.799D-03-0.923D-03 0.228D-04-0.927D-04-0.391D-05 0.101D-03
 Coeff-Com:  0.241D-03-0.184D-03 0.458D-03-0.538D-03 0.445D-03-0.217D-03
 Coeff-Com:  0.383D-02 0.315D-02-0.663D-02-0.493D-01-0.479D-01 0.568D-01
 Coeff-Com:  0.402D+00 0.638D+00
 Coeff-En:   0.000D+00 0.000D+00 0.000D+00 0.000D+00 0.000D+00 0.000D+00
 Coeff-En:   0.000D+00 0.000D+00 0.000D+00 0.000D+00 0.000D+00 0.000D+00
 Coeff-En:   0.000D+00 0.000D+00 0.000D+00 0.000D+00 0.000D+00 0.000D+00
 Coeff-En:   0.000D+00 0.100D+01
 Coeff:      0.798D-03-0.922D-03 0.227D-04-0.926D-04-0.390D-05 0.101D-03
 Coeff:      0.241D-03-0.184D-03 0.458D-03-0.538D-03 0.445D-03-0.217D-03
 Coeff:      0.383D-02 0.315D-02-0.662D-02-0.493D-01-0.478D-01 0.567D-01
 Coeff:      0.402D+00 0.638D+00
 Gap=     0.041 Goal=   None    Shift=    0.000
 RMSDP=1.03D-05 MaxDP=1.67D-03 DE=-1.55D-05 OVMax= 1.60D-03

 Cycle  21  Pass 1  IDiag  1:
 Restarting incremental Fock formation.
 E= -2107.33425736786     Delta-E=       -0.000008447092 Rises=F Damp=F
 DIIS: error= 7.98D-05 at cycle  21 NSaved=  20.
 NSaved=20 IEnMin=20 EnMin= -2107.33425736786     IErMin=20 ErrMin= 7.98D-05
 ErrMax= 7.98D-05  0.00D+00 EMaxC= 1.00D-01 BMatC= 8.22D-07 BMatP= 2.22D-06
 IDIUse=1 WtCom= 1.00D+00 WtEn= 0.00D+00
 Coeff-Com:  0.185D-03-0.234D-03 0.315D-05 0.219D-04-0.431D-05 0.300D-03
 Coeff-Com: -0.383D-03 0.312D-03-0.519D-03 0.729D-03-0.388D-03-0.181D-02
 Coeff-Com:  0.127D-01 0.318D-01 0.251D-02-0.109D+00-0.171D+00-0.172D+00
 Coeff-Com:  0.373D+00 0.103D+01
 Coeff:      0.185D-03-0.234D-03 0.315D-05 0.219D-04-0.431D-05 0.300D-03
 Coeff:     -0.383D-03 0.312D-03-0.519D-03 0.729D-03-0.388D-03-0.181D-02
 Coeff:      0.127D-01 0.318D-01 0.251D-02-0.109D+00-0.171D+00-0.172D+00
 Coeff:      0.373D+00 0.103D+01
 Gap=     0.041 Goal=   None    Shift=    0.000
 RMSDP=1.44D-05 MaxDP=2.34D-03 DE=-8.45D-06 OVMax= 2.20D-03

 Cycle  22  Pass 1  IDiag  1:
 RMSU=  1.44D-05    CP:  1.00D+00
 E= -2107.33426453610     Delta-E=       -0.000007168239 Rises=F Damp=F
 DIIS: error= 3.96D-05 at cycle  22 NSaved=  20.
 NSaved=20 IEnMin=20 EnMin= -2107.33426453610     IErMin=20 ErrMin= 3.96D-05
 ErrMax= 3.96D-05  0.00D+00 EMaxC= 1.00D-01 BMatC= 4.47D-07 BMatP= 8.22D-07
 IDIUse=1 WtCom= 1.00D+00 WtEn= 0.00D+00
 Coeff-Com: -0.301D-03 0.337D-03 0.119D-04 0.529D-04 0.750D-04-0.275D-03
 Coeff-Com:  0.764D-04-0.286D-03 0.384D-03 0.110D-03-0.320D-02 0.710D-02
 Coeff-Com:  0.208D-01 0.212D-01-0.536D-01-0.123D+00-0.293D+00-0.675D-01
 Coeff-Com:  0.721D+00 0.770D+00
 Coeff:     -0.301D-03 0.337D-03 0.119D-04 0.529D-04 0.750D-04-0.275D-03
 Coeff:      0.764D-04-0.286D-03 0.384D-03 0.110D-03-0.320D-02 0.710D-02
 Coeff:      0.208D-01 0.212D-01-0.536D-01-0.123D+00-0.293D+00-0.675D-01
 Coeff:      0.721D+00 0.770D+00
 Gap=     0.041 Goal=   None    Shift=    0.000
 RMSDP=9.96D-06 MaxDP=1.57D-03 DE=-7.17D-06 OVMax= 1.50D-03

 Cycle  23  Pass 1  IDiag  1:
 RMSU=  3.16D-06    CP:  1.00D+00  1.66D+00
 E= -2107.33426689273     Delta-E=       -0.000002356631 Rises=F Damp=F
 DIIS: error= 3.05D-05 at cycle  23 NSaved=  20.
 NSaved=20 IEnMin=20 EnMin= -2107.33426689273     IErMin=20 ErrMin= 3.05D-05
 ErrMax= 3.05D-05  0.00D+00 EMaxC= 1.00D-01 BMatC= 1.84D-07 BMatP= 4.47D-07
 IDIUse=1 WtCom= 1.00D+00 WtEn= 0.00D+00
 Coeff-Com:  0.150D-05 0.247D-05 0.250D-04-0.470D-05-0.675D-04 0.212D-04
 Coeff-Com:  0.110D-04 0.111D-03 0.100D-03-0.260D-02-0.115D-02-0.192D-03
 Coeff-Com:  0.165D-01 0.634D-02-0.208D-01-0.155D+00-0.197D+00 0.206D+00
 Coeff-Com:  0.550D+00 0.597D+00
 Coeff:      0.150D-05 0.247D-05 0.250D-04-0.470D-05-0.675D-04 0.212D-04
 Coeff:      0.110D-04 0.111D-03 0.100D-03-0.260D-02-0.115D-02-0.192D-03
 Coeff:      0.165D-01 0.634D-02-0.208D-01-0.155D+00-0.197D+00 0.206D+00
 Coeff:      0.550D+00 0.597D+00
 Gap=     0.041 Goal=   None    Shift=    0.000
[...]
 0002475,-0.00001634,0.00003392,0.00004466,0.00000623,0.00000390,0.0000
 0143,0.00000052,-0.00000327,-0.00000059,-0.00000348,-0.00000322,-0.000
 00047,0.00000328,-0.00008138,0.00001053,-0.00000578,0.00001178,0.00001
 268,0.00001622,0.00002260,0.00001134,0.00002033,-0.00001888,-0.0000135
 8,0.00001218,-0.00000818,-0.00001441,0.00000125,-0.00000487,-0.0000015
 2,-0.00000158,-0.00000015,0.00000069,-0.00000759,-0.00091069,-0.000611
 93,0.00089621,0.00000260,0.00000593,0.00000242,-0.00000867,0.00000188,
 0.00000262,-0.00000038,0.00000332,0.00001101,-0.11994792,0.01170605,0.
 07767056,0.00000580,0.00005579,0.00001469,-0.00004617,-0.00000275,-0.0
 0003597,0.00004531,-0.00001343,0.00004823,-0.00013668,-0.00013036,0.00
 003251,-0.00002335,-0.00001446,0.00000411,0.00003090,-0.00000006,-0.00
 001048,-0.00017857,0.00005872,-0.00004746,-0.00020092,-0.00008678,0.00
 007682,0.00006622,-0.00013526,-0.00001150,0.00008962,0.00007059,0.0000
 1019,-0.00005916,0.00010993,-0.00001453,0.00016054,0.00026776,-0.00006
 881,0.00012832,-0.00006063,-0.00002305,0.00001825,0.00006531,-0.000007
 95,0.00009499,0.00010908,-0.00001533,-0.00001630,-0.00002223,0.0000046
 4,0.00073275,0.00053931,0.00015285,-0.00030346,-0.00047509,-0.00461364
 ,0.00862484,0.03409315,-0.00735943,-0.08813790,-0.16400411,0.01396054,
 -0.00164134,-0.00321385,0.00332468,-0.00011511,0.00013332,0.00002428,0
 .00008233,-0.00004460,-0.00002098,-0.00000406,0.00013929,0.00001331,-0
 .00010616,-0.00008596,0.00000501,-0.00000194,-0.00000143,-0.00000144,-
 0.00003687,-0.00012909,0.00001587,0.00004949,0.00005390,-0.00001476,-0
 .00006559,-0.00007858,-0.00001180,-0.00000084,0.00004332,0.00000373,-0
 .00013913,0.00004630,-0.00001186,0.00008885,-0.00012397,-0.00000292,0.
 00000283,-0.00000361,-0.00000228,0.00011391,-0.00004391,0.00002007,-0.
 00004752,0.00004729,-0.00000602,0.00025926,0.00014027,0.00001720,0.000
 30790,-0.00030525,0.00008717,-0.00033668,0.00030598,-0.00003489,0.0000
 8437,-0.00010338,0.00001882,-0.00001203,0.00002241,-0.00000276,0.00012
 216,-0.00046960,-0.00001132,-0.00024579,0.00001523,-0.00011614,-0.0016
 1485,0.00109679,-0.00179411,0.00022418,-0.00018230,0.00034693,0.000794
 09,-0.00011099,0.00112934,0.00000165,-0.00000414,-0.00000317,-0.000009
 36,0.00000614,-0.00000432,0.00000515,0.00000010,0.00000313,-0.00006639
 ,0.00006158,-0.00016639,0.00000497,-0.00009747,0.00011290,-0.00014544,
 -0.00057212,0.00025520,0.00066135,0.00048006,-0.00005224,-0.00000037,0
 .00001013,-0.00000028,0.00000568,-0.00000426,0.00000078,0.00000158,-0.
 00000390,0.00000061,0.00000082,0.00000452,-0.00000111,-0.00000012,0.00
 000124,-0.00000082,-0.00000672,-0.00000074,-0.00000051,0.00000219,0.00
 000050,0.00000090,0.00000231,0.00000342,0.00000210,0.00000003,-0.00000
 303,-0.00000727,0.00000109,-0.00000894,0.00000141,-0.00000409,-0.00000
 187,0.00000038,-0.00047898,0.00011573,-0.00019709,-0.00000914,0.000030
 88,0.00005408,-0.00000790,0.00017115,0.00003205,-0.00015074,-0.0000448
 3,0.00000022,-0.00001984,0.00003922,-0.00005749,0.00000317,-0.00000661
 ,-0.00000282,0.00000315,-0.00000177,-0.00000284,-0.00000183,-0.0000013
 9,0.00000063,-0.00000083,0.00000044,-0.00000069,-0.00000396,0.00000129
 ,-0.00000234,-0.00000089,0.00000359,-0.00000481,0.00000088,0.00000123,
 -0.00000598,0.08206880,0.00002629,-0.00007203,-0.00004923,0.00005334,-
 0.00000240,0.00006171,-0.00005928,0.00001639,-0.00006146,0.00009412,0.
 00014704,-0.00003098,0.00001138,0.00003058,0.00000459,-0.00004383,0.00
 003090,0.00002309,0.00008132,-0.00004564,0.00005102,0.00011263,-0.0000
 0997,-0.00009653,-0.00008758,0.00018734,0.00001079,-0.00010704,-0.0000
 8101,-0.00000813,0.00005625,-0.00010143,0.00000640,-0.00019253,-0.0002
 9032,0.00008305,0.00005260,-0.00012970,0.00032364,0.00000412,-0.000011
 34,0.00001073,-0.00008197,-0.00013573,-0.00001626,0.00001724,0.0000207
 0,0.00000997,-0.00006076,-0.00090951,-0.00090082,0.00222791,0.00261464
 ,0.00504401,-0.01244678,-0.02941811,0.00353013,-0.11975896,-0.39496499
 ,0.05688947,-0.00501139,0.00389005,-0.00619360,0.00016626,-0.00020674,
 -0.00002902,-0.00012143,0.00008750,0.00003259,0.00003976,-0.00016655,-
 0.00002193,0.00011153,0.00007847,-0.00000969,0.00000425,-0.00000243,0.
 00000258,0.00004734,0.00016195,-0.00002036,-0.00006160,-0.00006845,0.0
 0001848,0.00012508,0.00007921,0.00001335,-0.00004031,-0.00009310,-0.00
 001394,0.00019340,-0.00001810,0.00002511,-0.00012283,0.00012455,-0.000
 00042,-0.00000210,0.00000512,0.00000308,-0.00017211,0.00006805,-0.0000
 3030,0.00007286,-0.00007140,0.00001084,-0.00023181,-0.00011841,-0.0000
 1543,-0.00030772,0.00034617,-0.00004755,0.00032243,-0.00036290,-0.0000
 2021,-0.00000831,0.00009577,0.00000621,0.00000810,-0.00001155,-0.00000
 067,-0.00032644,0.00043100,-0.00000219,-0.00014882,-0.00020987,0.00043
 411,0.00092537,0.00216658,-0.00001339,-0.00002909,-0.00108847,-0.00007
 128,0.00014974,-0.00042418,0.00035511,-0.00000532,0.00000448,-0.000002
 57,-0.00001078,-0.00001176,0.00000833,-0.00000683,0.00000387,0.0000015
 2,0.00003635,0.00003414,0.00005576,0.00004754,0.00005778,0.00008106,0.
 00019640,0.00011739,-0.00047526,0.00014671,0.00067802,-0.00029386,-0.0
 0000218,-0.00001193,-0.00000031,-0.00000779,0.00000601,-0.00000020,-0.
 00000181,0.00000385,-0.00000167,-0.00000139,-0.00000667,0.00000161,-0.
 00000008,-0.00000128,0.00000116,0.00000971,0.00000081,-0.00000004,-0.0
 0000247,-0.00000015,-0.00000120,-0.00000474,-0.00000518,-0.00000325,0.
 00001023,-0.00000400,0.00000617,-0.00000443,0.00001126,0.00000034,-0.0
 0000340,0.00000609,-0.00000332,0.00025563,-0.00012057,0.00013934,-0.00
 013451,0.00003024,-0.00008298,0.00001017,-0.00026550,-0.00024539,0.001
 13136,-0.00014995,0.00011987,0.00027678,-0.00026964,0.00018954,-0.0000
 0489,0.00000069,0.00000081,-0.00000610,0.00000673,0.00000039,0.0000034
 3,0.00000091,-0.00000261,0.00000072,0.,0.00000016,0.00000616,-0.000002
 50,0.00000244,0.00000198,-0.00000651,0.00000570,-0.00000225,-0.0000020
 9,0.00000743,0.13235777,0.41825849,-0.00002970,0.00002869,0.00005333,0
 .00001656,0.00000376,-0.00001160,-0.00000874,-0.00001261,0.00001621,0.
 00001490,-0.00015212,-0.00000309,-0.00000637,-0.00001541,-0.00001013,0
 .00002659,-0.00001886,-0.00002259,-0.00006498,0.00004135,-0.00004810,-
 0.00009373,-0.00000564,-0.00001791,0.00006342,-0.00012372,-0.00001074,
 0.00006342,0.00004834,0.00000222,-0.00003653,0.00006431,-0.00001511,0.
 00006671,0.00014582,0.00001757,-0.00007563,0.00010156,-0.00019755,0.00
 004407,-0.00004208,-0.00001133,0.00003747,0.00008047,0.00001114,-0.000
 01119,0.00000554,-0.00000419,-0.00028310,0.00003705,0.00000520,-0.0045
 5101,0.00172558,0.00367794,0.00953270,0.03394297,-0.00364799,-0.002900
 55,0.02713977,-0.03125798,0.00351346,-0.00533500,-0.00167330,-0.000104
 85,0.00013162,0.00002525,0.00007942,-0.00006038,-0.00002295,-0.0000280
 4,0.00010257,0.00001450,-0.00006202,-0.00005259,0.00000846,-0.00000276
 ,0.00000258,-0.00000236,-0.00003104,-0.00010185,0.00001119,0.00003676,
 0.00004258,-0.00001417,-0.00007146,-0.00005252,-0.00000431,0.00002153,
 0.00005716,0.00000706,-0.00011781,0.00001236,-0.00001235,0.00008169,-0
 .00008008,0.00000404,0.00000186,-0.00000296,-0.00000114,0.00010534,-0.
 00004073,0.00001599,-0.00004319,0.00004341,-0.00000980,0.00015501,0.00
 007570,0.00003115,0.00018085,-0.00021184,0.00005062,-0.00018099,0.0001
 8189,-0.00001584,0.00005826,-0.00004551,-0.00000086,-0.00000630,0.0000
 1222,-0.00000165,0.00013683,-0.00033903,-0.00021952,0.00022821,0.00020
 204,-0.00016963,-0.00234519,-0.00025735,0.00264592,0.00123851,-0.00047
 976,-0.00050354,0.00001664,0.00036796,-0.00184032,-0.00000039,0.000003
 45,0.00000190,0.00001797,0.00001019,0.00001081,0.00000144,-0.00001874,
 0.00000024,0.00001091,0.00004968,0.00006220,-0.00005759,0.00011127,-0.
 00013464,0.00029721,0.00133936,-0.00038671,-0.00018526,-0.00014226,-0.
 00015606,0.00000138,0.00000741,0.00000490,0.00000605,-0.00000727,0.000
 00099,-0.00000037,-0.00000007,0.00000024,0.00000194,0.00000388,0.00000
 088,0.00000062,0.00000019,0.00000128,-0.00000682,-0.00000170,0.0000014
 9,0.00000090,-0.00000001,-0.00000026,0.00000479,0.00000305,0.00000325,
 -0.00000560,0.00000293,0.00000597,-0.00000211,-0.00000090,-0.00000209,
 0.00000753,-0.00000901,0.00000363,0.00004779,0.00015906,0.00014872,0.0
 0007634,0.00000877,0.00007648,0.00017795,-0.00009451,0.00019483,-0.000
 34693,0.00005086,0.00004455,-0.00014381,0.00013532,-0.00001501,0.00000
 166,0.00000483,0.00000462,0.00000320,-0.00000343,0.00000352,-0.0000019
 6,-0.00000119,0.00000442,-0.00000072,-0.00000006,0.00000218,-0.0000037
 3,0.00000150,0.00000073,-0.00000099,0.00000414,-0.00000003,0.00000324,
 0.00000082,-0.00000252,-0.00494819,-0.05872896,0.03296890,0.00007205,0
 .00000293,-0.00004140,0.00000740,-0.00000868,0.00004100,-0.00002285,-0
 .00000494,-0.00000187,-0.00010627,0.00001177,0.00000659,-0.00000822,0.
 00002265,0.00000868,0.00000100,0.00008425,0.00001726,-0.00042524,0.000
 07381,-0.00005358,-0.00016297,0.00002299,-0.00008744,0.00003629,-0.000
 05608,-0.00001351,0.00006957,0.00004885,0.00000899,-0.00005550,0.00013
 957,-0.00000654,-0.00001935,0.00016744,0.00001333,0.00011094,-0.000060
 53,-0.00005578,0.00001069,-0.00005341,-0.00000158,0.00002464,0.0000879
 1,-0.00000056,-0.00000477,-0.00000009,0.00000180,0.00005717,-0.0000064
 1,0.00005788,-0.00007247,0.00016803,0.00004336,-0.00049799,-0.00103890
 ,0.00063312,0.00015343,0.00024789,-0.00051177,-0.00068577,-0.00008581,
 -0.00060915,-0.00004514,-0.00001644,0.00001506,-0.00000928,0.00003633,
 0.00000245,0.00005884,0.00005801,-0.00000282,-0.00008992,-0.00006773,0
 .00000067,0.00000231,-0.00000464,0.00000025,-0.00000884,-0.00003727,0.
 00000295,0.00001362,0.00001363,-0.00000498,0.00004939,-0.00009905,-0.0
 0000828,-0.00007560,-0.00005889,-0.00001461,0.00000749,0.00008117,0.00
 001053,-0.00002401,-0.00010644,-0.00001661,0.00000296,0.00000070,-0.00
 000048,-0.00003049,0.00002139,-0.00000378,0.00001483,-0.00001422,0.000
 00456,0.00027487,0.00016148,-0.00000653,0.00034550,-0.00000652,0.00011
 117,-0.00073216,0.00003476,-0.00010776,0.00027137,-0.00030205,0.000043
 96,-0.00002255,0.00008543,0.00001938,0.00075051,0.00005990,0.00042047,
 0.00171338,0.00122287,-0.00220240,-0.01153225,0.01337482,0.00287796,0.
 00490112,-0.00266609,0.00336384,-0.11142275,0.10683581,0.14330304,-0.0
 0000051,0.00000429,-0.00000899,-0.00001895,0.00000033,0.00000933,0.000
 00218,-0.00000170,0.00000801,-0.00000383,0.00002759,-0.00002849,-0.000
 01614,-0.00001247,0.00002931,0.00001570,-0.00005034,0.00000090,-0.0000
 0856,0.00000266,-0.00001459,-0.00000476,0.00000254,0.00000131,0.000000
 58,-0.00000143,0.00000196,0.,-0.00000112,-0.00000185,0.00000011,-0.000
 00068,0.00000063,-0.00000022,0.00000053,0.00000091,-0.00000041,-0.0000
 0080,-0.00000035,0.00000076,0.00000117,-0.00000023,-0.00000170,0.00000
 007,0.00000008,0.00001278,-0.00004361,-0.00005234,-0.00000826,-0.00002
 555,0.00001573,-0.00004393,0.00001326,-0.00001361,0.00174600,0.0005245
 4,0.00092635,-0.00073663,0.00035937,-0.00057884,-0.00025854,-0.0016016
 1,-0.00047674,-0.00034956,0.00006029,-0.00023236,-0.00002868,-0.000177
 42,0.00007862,0.00000012,-0.00000899,0.00000373,-0.00001048,0.00001643
 ,-0.00000813,0.00000145,-0.00000167,-0.00000111,-0.00000161,0.00000218
 ,-0.00000169,0.00000133,-0.00000213,-0.00000076,0.00000114,-0.00000359
 ,-0.00000229,-0.00000049,-0.00000094,-0.00000097,-0.00051274,0.0002274
 0,0.00037849,0.11732886,0.00003240,-0.00004573,-0.00003504,0.00003731,
 -0.00000453,0.00004759,-0.00004558,0.00001711,-0.00005151,0.00006224,0
 .00015337,-0.00002123,-0.00000198,0.00001841,0.00000513,-0.00003869,0.
 00002787,0.00001917,0.00015016,-0.00008322,0.00005431,0.00024634,0.000
 14072,-0.00000362,-0.00008787,0.00017547,0.00000745,-0.00010142,-0.000
 07525,-0.00000710,0.00005761,-0.00009162,0.00000956,-0.00014844,-0.000
 24714,0.00004430,0.00002697,0.00001545,-0.00000145,-0.00005120,-0.0000
 1575,0.00000839,-0.00006654,-0.00012263,0.00002311,0.00000879,0.000011
 22,-0.00000329,0.00001385,0.00000660,0.00001126,0.00000940,0.00003189,
 0.00001878,-0.00045331,-0.00006043,-0.00000909,0.00017648,-0.00015476,
 0.00009833,0.00052600,0.00029856,-0.00002322,0.00015532,-0.00017784,-0
 .00003403,-0.00010052,0.00007534,0.00002774,0.00003344,-0.00013848,-0.
 00001702,0.00009973,0.00006365,-0.00000924,0.00000303,-0.00000318,0.00
 000229,0.00003842,0.00013335,-0.00001700,-0.00005024,-0.00005633,0.000
 01521,0.00012429,0.00007575,0.00001170,-0.00004667,-0.00008920,-0.0000
 1409,0.00017884,-0.00001156,0.00002312,-0.00011327,0.00011343,0.000001
 90,-0.00000054,0.00000414,0.00000306,-0.00015991,0.00006722,-0.0000269
 5,0.00006785,-0.00006680,0.00001160,-0.00027659,-0.00020055,-0.0000168
 2,-0.00031680,0.00044301,-0.00006042,0.00034334,-0.00058509,-0.0000039
 0,-0.00005342,0.00004755,-0.00004519,0.00000280,0.00001247,0.00000325,
 0.00002323,0.00011360,0.00011058,-0.00001082,-0.00055835,0.00054177,-0
 .01439733,0.00262027,0.02142612,-0.00159167,0.00202776,0.00406361,0.13
 364449,-0.17104215,-0.17132102,-0.00000025,0.00000325,-0.00000011,-0.0
 0000115,-0.00000766,0.00000169,-0.00000118,0.00000244,0.00000003,0.000
 00711,0.00000752,-0.00000649,-0.00000960,-0.00000373,0.00001656,-0.000
 01210,-0.00001405,-0.00001461,0.00000713,0.00000461,-0.00001280,-0.000
 00162,-0.00000899,-0.00000115,-0.00000635,0.00000541,-0.00000046,-0.00
 000113,0.00000270,-0.00000104,-0.00000137,-0.00000507,0.00000113,0.000
 00020,-0.00000084,0.00000077,0.00000798,0.00000064,-0.00000086,-0.0000
 0156,0.00000002,-0.00000073,-0.00000481,-0.00000426,-0.00000316,0.0000
 1491,-0.00001321,-0.00000988,-0.00000675,0.00000182,0.00000489,-0.0000
 0374,0.00001478,-0.00000483,0.00085558,-0.00096004,0.00248410,-0.00007
 458,0.00027067,0.00005980,-0.00084180,-0.00123296,0.00047558,-0.000041
 64,0.00000352,0.00003862,-0.00004245,-0.00000435,-0.00002238,-0.000003
 00,0.00000033,0.00000457,-0.00000709,0.00001124,-0.00000215,0.00000346
 ,0.00000088,-0.00000321,-0.00000010,0.00000135,-0.00000135,0.00000531,
 -0.00000314,0.00000135,0.00000207,-0.00000712,0.00000354,-0.00000219,-
 0.00000150,0.00000597,-0.00010998,0.00006930,-0.00005586,-0.11767884,0
 .16900281,-0.00001434,0.00009625,0.00009456,-0.00004623,0.00000758,-0.
 00005550,0.00005475,-0.00004459,0.00010346,-0.00024512,-0.00039839,0.0
 0004203,0.00001050,-0.00000904,-0.00001763,0.00007774,0.00002406,-0.00
 004506,-0.00074149,0.00019489,-0.00020406,-0.00084497,-0.00048647,-0.0
 0004418,0.00023341,-0.00046410,-0.00003304,0.00030022,0.00021629,0.000
 02284,-0.00017358,0.00032421,-0.00005234,0.00035759,0.00069499,-0.0001
 1029,0.00005261,-0.00007402,-0.00003210,0.00011926,-0.00002224,-0.0000
 2126,0.00017714,0.00036062,-0.00004435,-0.00002263,-0.00002488,0.00001
 113,0.00001688,-0.00001152,0.00002401,0.00001715,0.00003117,-0.0000562
 7,0.00074718,-0.00027702,0.00068285,-0.00026391,0.00039979,-0.00055528
 ,-0.00101072,0.00049237,0.00005109,-0.00041202,0.00038328,0.00009814,0
 .00021264,-0.00013427,-0.00005933,-0.00001856,0.00035759,0.00003500,-0
 .00030784,-0.00020664,0.00002414,-0.00000398,0.00000385,-0.00000471,-0
 .00009316,-0.00032697,0.00003900,0.00012236,0.00013566,-0.00003906,-0.
 00022905,-0.00028114,-0.00003055,0.00002837,0.00013882,0.00001394,-0.0
 0038938,0.00010487,-0.00003637,0.00024698,-0.00035530,-0.00000771,0.00
 000350,-0.00000826,-0.00000667,0.00032658,-0.00012771,0.00005249,-0.00
 013409,0.00013478,-0.00002479,0.00092187,0.00058919,0.00009688,0.00107
 876,-0.00106568,0.00028147,-0.00152615,0.00109875,-0.00029129,0.000388
 75,-0.00038366,0.00014139,-0.00004048,0.00009418,-0.00000455,0.0004573
 5,-0.00093671,-0.00009168,-0.00110553,-0.00045502,0.00284890,0.0151644
 0,-0.02945646,-0.02185785,0.00255559,0.00576791,-0.00242886,0.13165915
 ,-0.12246535,-0.19671901,-0.00000092,-0.00000335,-0.00000835,-0.000014
 13,0.00001682,0.00000499,0.00000284,-0.00000858,0.00000832,-0.00002405
 ,-0.00000203,-0.00001493,0.00001292,-0.00001383,-0.00003082,0.00001671
 ,-0.00005626,0.00004213,-0.00001338,0.00000548,0.00000171,-0.00000094,
 0.00002167,0.00000502,0.00001451,-0.00001455,0.00000365,0.00000220,-0.
 00000651,-0.00000001,0.00000367,0.00000983,-0.00000097,-0.00000079,0.0
 0000196,0.,-0.00001821,-0.00000330,0.00000312,0.00000388,0.00000099,0.
 00000012,0.00001116,0.00000843,0.00000886,-0.00003326,-0.00000777,-0.0
 0000396,0.00000734,-0.00002474,-0.00000557,0.00001306,-0.00003571,0.00
 001653,-0.00153813,0.00344913,-0.00179702,-0.00073206,0.00011876,0.000
 14339,0.00073618,0.00143362,0.00040224,0.00102683,-0.00061450,0.000214
 56,0.00018546,-0.00000612,0.00008205,0.00000680,-0.00000996,-0.0000056
 3,0.00000558,-0.00000711,0.00000637,-0.00000641,-0.00000403,0.00000854
 ,-0.00000131,-0.00000113,0.00000367,-0.00001008,0.00000483,-0.00000125
 ,-0.00000225,0.00001319,-0.00000434,0.00000571,0.00000154,-0.00001260,
 -0.00007759,-0.00007673,0.00030286,-0.14728886,0.14217434,0.21883780\\
 0.00758013,-0.00931192,-0.04959076,0.08998290,0.00767639,0.06672162,-0
 .09089213,-0.00733084,-0.06445713,0.02761358,-0.00595359,0.00422604,0.
 00647529,0.02119378,0.01261656,-0.02156679,0.00875384,0.01549026,0.012
 57035,-0.02506767,0.02015841,0.01840755,0.01220572,0.00097746,-0.00331
 590,0.00416526,0.00073282,-0.00261046,-0.00248516,-0.00041851,0.001157
 45,-0.00402255,0.00038800,-0.00125106,-0.00400241,-0.00003762,-0.00197
 803,0.00036277,0.00036903,-0.00205661,0.00161795,0.00017152,-0.0000961
 0,-0.00439883,0.00036871,0.00026357,0.00017848,-0.00003940,-0.00062370
 ,0.00047003,0.00021708,0.00234096,-0.00155635,-0.00103169,0.01346281,0
 .00616673,-0.00258332,-0.00289672,-0.00019060,0.00299692,0.10579123,0.
 02840535,0.02231914,0.00272572,-0.00373708,-0.00093369,-0.00252356,0.0
 0152454,0.00071636,-0.00036854,-0.00456585,-0.00021018,0.00360942,0.00
 461952,-0.00007076,0.00001679,-0.00011739,0.00002350,0.00109367,0.0042
 6844,-0.00058420,-0.00159172,-0.00175792,0.00043342,0.00200856,0.00177
 400,-0.00015857,0.00006241,-0.00113934,-0.00012587,0.00454366,-0.00203
 363,0.00031563,-0.00342399,0.00330669,0.00025834,-0.00000344,-0.000030
 53,0.00008368,-0.00389587,0.00155400,-0.00057872,0.00168705,-0.0016183
 2,0.00028548,-0.02061968,-0.03156017,0.00041355,-0.02962778,0.03256600
 ,-0.00715882,0.04009801,-0.05515229,0.00854032,-0.00363121,0.02336898,
 -0.00589351,-0.00054861,-0.00052563,0.00070390,-0.12676295,0.08304304,
 -0.07000132,0.33653385,-0.10205239,-0.18334095,0.00640678,-0.02717195,
 -0.03770993,-0.02651546,-0.00909719,0.01058846,-0.00616990,0.00358866,
 0.01587034,0.00003736,-0.00004935,0.00011484,0.00023063,-0.00009121,-0
 .00008487,-0.00002826,-0.00004081,-0.00010643,-0.00006169,-0.00046418,
 0.00005555,0.00065502,0.00001404,-0.00078182,-0.00009368,0.00063137,0.
 00013258,0.00011202,0.00028809,0.00008151,0.00010347,-0.00019495,-0.00
 003056,-0.00016566,0.00010916,-0.00005807,-0.00007649,0.00008246,0.000
 03611,-0.00001906,-0.00009604,0.00003242,0.00003849,-0.00005114,0.0000
 1478,0.00014296,0.00003678,-0.00002742,0.00001069,0.00001183,0.0000328
 3,-0.00008233,-0.00004592,-0.00010452,-0.00098261,-0.00129546,-0.00094
 432,0.00040297,-0.00085623,0.00054361,-0.00000484,-0.00053248,-0.00032
 968,-0.35882584,0.04918813,0.24561792,0.01748527,-0.01980419,-0.006220
 65,0.03083908,0.01225122,0.00923238,-0.03117471,-0.01786986,-0.0015168
 6,0.00513407,0.04202803,-0.00360298,0.00002882,0.00010035,-0.00004930,
 -0.00009858,0.00027703,-0.00008243,0.00014799,0.00012167,0.00001180,0.
 00002068,0.00004820,-0.00004492,0.00000240,-0.00005768,0.00002283,0.00
 002560,-0.00012796,0.00002331,-0.00003592,0.00001350,0.00022530,0.0013
 6661,-0.00109176,-0.00166753,0.00340401,-0.00846320,-0.00158701\\\@


 "WHERE SHALL I START, PLEASE YOUR MAJESTY?" HE ASKED.
 "BEGIN AT THE BEGINNING," THE KING SAID GRAVELY,
 "AND GO ON TILL YOU COME TO THE END: THEN STOP." 

                                      -- LEWIS CARROLL
 Job cpu time:       0 days 10 hours 52 minutes 16.1 seconds.
 File lengths (MBytes):  RWF=   2465 Int=      0 D2E=      0 Chk=     23 Scr=      1
 Normal termination of Gaussian 09 at Mon Feb 29 10:44:35 2016.
