 Entering Gaussian System, Link 0=g09
 Input=./MBO_L_90.gjf
 Output=./MBO_L_90.log
 Initial command:
 /nas02/apps/gaussian-09d01/em64t/g09/l1.exe "/lustre/appscr/gausswork/tcheshir/Gau-1091.inp" -scrdir="/lustre/appscr/gausswork/tcheshir/"
 Entering Link 1 = /nas02/apps/gaussian-09d01/em64t/g09/l1.exe PID=      1092.
  
 Copyright (c) 1988,1990,1992,1993,1995,1998,2003,2009,2013,
            Gaussian, Inc.  All Rights Reserved.
  
 This is part of the Gaussian(R) 09 program.  It is based on
 the Gaussian(R) 03 system (copyright 2003, Gaussian, Inc.),
 the Gaussian(R) 98 system (copyright 1998, Gaussian, Inc.),
 the Gaussian(R) 94 system (copyright 1995, Gaussian, Inc.),
 the Gaussian 92(TM) system (copyright 1992, Gaussian, Inc.),
 the Gaussian 90(TM) system (copyright 1990, Gaussian, Inc.),
 the Gaussian 88(TM) system (copyright 1988, Gaussian, Inc.),
 the Gaussian 86(TM) system (copyright 1986, Carnegie Mellon
 University), and the Gaussian 82(TM) system (copyright 1983,
 Carnegie Mellon University). Gaussian is a federally registered
 trademark of Gaussian, Inc.
  
 This software contains proprietary and confidential information,
 including trade secrets, belonging to Gaussian, Inc.
  
 This software is provided under written license and may be
 used, copied, transmitted, or stored only in accord with that
 written license.
  
 The following legend is applicable only to US Government
 contracts under FAR:
  
                    RESTRICTED RIGHTS LEGEND
  
 Use, reproduction and disclosure by the US Government is
 subject to restrictions as set forth in subparagraphs (a)
 and (c) of the Commercial Computer Software - Restricted
 Rights clause in FAR 52.227-19.
  
 Gaussian, Inc.
 340 Quinnipiac St., Bldg. 40, Wallingford CT 06492
  
  
 ---------------------------------------------------------------
 Warning -- This program may not be used in any manner that
 competes with the business of Gaussian, Inc. or will provide
 assistance to any competitor of Gaussian, Inc.  The licensee
 of this program is prohibited from giving any competitor of
 Gaussian, Inc. access to this program.  By using this program,
 the user acknowledges that Gaussian, Inc. is engaged in the
 business of creating and licensing software in the field of
 computational chemistry and represents and warrants to the
 licensee that it is not a competitor of Gaussian, Inc. and that
 it will not use this program in any manner prohibited above.
 ---------------------------------------------------------------
  

 Cite this work as:
 Gaussian 09, Revision D.01,
 M. J. Frisch, G. W. Trucks, H. B. Schlegel, G. E. Scuseria, 
 M. A. Robb, J. R. Cheeseman, G. Scalmani, V. Barone, B. Mennucci, 
 G. A. Petersson, H. Nakatsuji, M. Caricato, X. Li, H. P. Hratchian, 
 A. F. Izmaylov, J. Bloino, G. Zheng, J. L. Sonnenberg, M. Hada, 
 M. Ehara, K. Toyota, R. Fukuda, J. Hasegawa, M. Ishida, T. Nakajima, 
 Y. Honda, O. Kitao, H. Nakai, T. Vreven, J. A. Montgomery, Jr., 
 J. E. Peralta, F. Ogliaro, M. Bearpark, J. J. Heyd, E. Brothers, 
 K. N. Kudin, V. N. Staroverov, T. Keith, R. Kobayashi, J. Normand, 
 K. Raghavachari, A. Rendell, J. C. Burant, S. S. Iyengar, J. Tomasi, 
 M. Cossi, N. Rega, J. M. Millam, M. Klene, J. E. Knox, J. B. Cross, 
 V. Bakken, C. Adamo, J. Jaramillo, R. Gomperts, R. E. Stratmann, 
 O. Yazyev, A. J. Austin, R. Cammi, C. Pomelli, J. W. Ochterski, 
 R. L. Martin, K. Morokuma, V. G. Zakrzewski, G. A. Voth, 
 P. Salvador, J. J. Dannenberg, S. Dapprich, A. D. Daniels, 
 O. Farkas, J. B. Foresman, J. V. Ortiz, J. Cioslowski, 
 and D. J. Fox, Gaussian, Inc., Wallingford CT, 2013.
 
 ******************************************
 Gaussian 09:  EM64L-G09RevD.01 24-Apr-2013
                29-Feb-2016 
 ******************************************
 %nprocshared=8
 Will use up to    8 processors via shared memory.
 %nosave
 %mem=16GB
 %chk=MBO_L_90.chk
 ----------------------------------------------------------------------
 #p freq=savenormalmodes rb3lyp/lanl2dz scrf=check guess=(read,save) ge
 om=connectivity iop(7/33=1)
 ----------------------------------------------------------------------
 1/10=4,30=1,38=1,40=1,57=2/1,3;
 2/12=2,17=6,18=5,40=1/2;
 3/5=6,6=3,11=2,16=1,25=1,30=1,70=2,71=2,74=-5,116=1,140=1/1,2,3;
 4/5=1/1;
 5/5=2,38=6,98=1/2;
 8/6=4,10=90,11=11/1;
 11/6=1,8=1,9=11,15=111,16=1/1,2,10;
 10/6=1/2;
 6/7=2,8=2,9=2,10=2,18=1,28=1/1;
 7/8=1,10=1,25=1,33=1,92=1/1,2,3,16;
 1/10=4,30=1/3;
 99//99;
 Leave Link    1 at Mon Feb 29 09:23:08 2016, MaxMem=  2147483648 cpu:         0.6
 (Enter /nas02/apps/gaussian-09d01/em64t/g09/l101.exe)
 -----------------------------------
 Oxy myoglobin frequency calculation
 -----------------------------------
 Symbolic Z-matrix:
 Charge =  2 Multiplicity = 1
 Fe
 O                    1    B1
 O                    2    B2       1    A1
 N                    1    B3       2    A2       3    D1       0
 N                    1    B4       2    A3       3    D2       0
 N                    1    B5       2    A4       3    D3       0
 N                    1    B6       2    A5       3    D4       0
 C                    7    B7       1    A6       2    D5       0
 C                    5    B8       1    A7       2    D6       0
 C                    5    B9       1    A8       2    D7       0
 C                    6    B10      1    A9       2    D8       0
 C                    4    B11      1    A10      2    D9       0
 C                    12   B12      4    A11      1    D10      0
 C                    13   B13      12   A12      4    D11      0
 C                    9    B14      5    A13      1    D12      0
 C                    14   B15      13   A14      12   D13      0
 C                    13   B16      12   A15      4    D14      0
 C                    17   B17      13   A16      14   D15      0
 C                    18   B18      17   A17      13   D16      0
 O                    19   B19      18   A18      17   D17      0
 O                    19   B20      18   A19      17   D18      0
 C                    5    B21      1    A20      2    D19      0
 C                    22   B22      5    A21      1    D20      0
 C                    23   B23      22   A22      5    D21      0
 C                    10   B24      5    A23      1    D22      0
 C                    23   B25      22   A24      5    D23      0
 C                    24   B26      23   A25      22   D24      0
 C                    27   B27      24   A26      23   D25      0
 C                    6    B28      1    A27      2    D26      0
 C                    29   B29      6    A28      1    D27      0
 C                    30   B30      29   A29      6    D28      0
 C                    11   B31      6    A30      1    D29      0
 C                    30   B32      29   A31      6    D30      0
 C                    31   B33      30   A32      29   D31      0
 C                    34   B34      31   A33      30   D32      0
 C                    7    B35      1    A34      2    D33      0
 C                    36   B36      7    A35      1    D34      0
 C                    37   B37      36   A36      7    D35      0
 C                    38   B38      37   A37      1    D36      0
 C                    37   B39      36   A38      7    D37      0
 C                    38   B40      37   A39      36   D38      0
 C                    41   B41      38   A40      37   D39      0
 C                    42   B42      41   A41      38   D40      0
 O                    43   B43      42   A42      41   D41      0
 O                    43   B44      42   A43      41   D42      0
 H                    16   B45      14   A44      13   D43      0
 H                    16   B46      14   A45      13   D44      0
 H                    16   B47      14   A46      13   D45      0
 H                    17   B48      13   A47      12   D46      0
 H                    17   B49      13   A48      12   D47      0
 H                    18   B50      17   A49      13   D48      0
 H                    18   B51      17   A50      13   D49      0
 H                    26   B52      23   A51      22   D50      0
 H                    26   B53      23   A52      22   D51      0
 H                    26   B54      23   A53      22   D52      0
 H                    28   B55      27   A54      24   D53      0
 H                    28   B56      27   A55      24   D54      0
 H                    33   B57      30   A56      29   D55      0
 H                    33   B58      30   A57      29   D56      0
 H                    33   B59      30   A58      29   D57      0
 H                    40   B60      37   A59      36   D58      0
 H                    40   B61      37   A60      36   D59      0
 H                    40   B62      37   A61      36   D60      0
 H                    41   B63      38   A62      37   D61      0
 H                    41   B64      38   A63      37   D62      0
 H                    42   B65      41   A64      38   D63      0
 H                    42   B66      41   A65      38   D64      0
 H                    8    B67      7    A66      1    D65      0
 H                    9    B68      5    A67      1    D66      0
 H                    11   B69      6    A68      1    D67      0
 H                    10   B70      5    A69      1    D68      0
 H                    35   B71      34   A70      31   D69      0
 H                    35   B72      34   A71      31   D70      0
 H                    34   B73      31   A72      30   D71      0
 H                    27   B74      24   A73      23   D72      0
 H                    20   B75      19   A74      18   D73      0
 H                    45   B76      43   A75      42   D74      0
       Variables:
  B1                    1.82671                  
  B2                    1.2165                   
  B3                    1.94997                  
  B4                    1.94995                  
  B5                    1.94995                  
  B6                    1.94998                  
  B7                    2.46145                  
  B8                    2.47262                  
  B9                    2.46614                  
  B10                   2.45818                  
  B11                   1.36413                  
  B12                   1.47737                  
  B13                   1.37085                  
  B14                   1.35671                  
  B15                   1.50025                  
  B16                   1.50974                  
  B17                   1.5661                   
  B18                   1.5177                   
  B19                   1.3522                   
  B20                   1.25483                  
  B21                   1.37847                  
  B22                   1.45112                  
  B23                   1.39163                  
  B24                   1.36097                  
  B25                   1.50314                  
  B26                   1.44883                  
  B27                   1.36548                  
  B28                   1.37604                  
  B29                   1.45311                  
  B30                   1.39227                  
  B31                   1.36085                  
  B32                   1.50254                  
  B33                   1.4485                   
  B34                   1.36568                  
  B35                   1.37056                  
  B36                   1.46812                  
  B37                   1.3756                   
  B38                   1.47783                  
  B39                   1.50263                  
  B40                   1.50071                  
  B41                   1.566                    
  B42                   1.53781                  
  B43                   1.23338                  
  B44                   1.37342                  
  B45                   1.09809                  
  B46                   1.09277                  
  B47                   1.0984                   
  B48                   1.09361                  
  B49                   1.09703                  
  B50                   1.09951                  
  B51                   1.09282                  
  B52                   1.09292                  
  B53                   1.097                    
  B54                   1.0985                   
  B55                   1.08421                  
  B56                   1.08668                  
  B57                   1.09321                  
  B58                   1.09884                  
  B59                   1.09684                  
  B60                   1.09313                  
  B61                   1.09833                  
  B62                   1.09824                  
  B63                   1.09575                  
  B64                   1.09543                  
  B65                   1.09703                  
  B66                   1.09309                  
  B67                   1.08489                  
  B68                   1.08255                  
  B69                   1.08248                  
  B70                   1.08167                  
  B71                   1.08664                  
  B72                   1.08396                  
  B73                   1.08784                  
  B74                   1.08827                  
  B75                   0.98705                  
  B76                   0.99259                  
  A1                  115.51459                  
  A2                   89.99903                  
  A3                   90.00029                  
  A4                   89.99994                  
  A5                   89.99962                  
  A6                  101.94944                  
  A7                  100.63307                  
  A8                  100.4375                   
  A9                  100.12176                  
  A10                 129.70045                  
  A11                 113.42011                  
  A12                 106.13721                  
  A13                  96.00285                  
  A14                 129.63792                  
  A15                 125.11683                  
  A16                 115.87855                  
  A17                 112.75649                  
  A18                 112.98485                  
  A19                 123.76007                  
  A20                 129.32762                  
  A21                 113.93997                  
  A22                 105.84741                  
  A23                  27.92573                  
  A24                 126.01672                  
  A25                 131.01406                  
  A26                 126.89621                  
  A27                 129.04728                  
  A28                 113.76369                  
  A29                 105.87319                  
  A30                  28.28108                  
  A31                 125.94053                  
  A32                 131.11785                  
  A33                 127.0052                   
  A34                 127.48346                  
  A35                 113.19442                  
  A36                 106.11407                  
  A37                 106.23812                  
  A38                 125.00408                  
  A39                 128.92576                  
  A40                 112.5305                   
  A41                 109.8774                   
  A42                 122.73992                  
  A43                 115.59503                  
  A44                 111.46141                  
  A45                 111.56386                  
  A46                 111.52425                  
  A47                 108.54192                  
  A48                 109.03599                  
  A49                 111.33132                  
  A50                 111.34268                  
  A51                 112.87304                  
  A52                 110.74389                  
  A53                 111.44574                  
  A54                 123.62342                  
  A55                 120.17815                  
  A56                 112.79575                  
  A57                 111.52316                  
  A58                 110.73234                  
  A59                 111.15606                  
  A60                 111.61135                  
  A61                 111.88661                  
  A62                 110.05182                  
  A63                 109.42703                  
  A64                 110.45967                  
  A65                 109.946                    
  A66                 147.94648                  
  A67                 145.48787                  
  A68                 147.75979                  
  A69                 146.87328                  
  A70                 120.12231                  
  A71                 123.70971                  
  A72                 116.6159                   
  A73                 116.52013                  
  A74                 115.04889                  
  A75                 116.13079                  
  D1                 -159.714                    
  D2                  110.35291                  
  D3                   20.07987                  
  D4                  -71.07                     
  D5                  -97.75119                  
  D6                   80.7776                   
  D7                  -97.72215                  
  D8                  -83.0713                   
  D9                   96.4525                   
  D10                -173.70608                  
  D11                   0.94379                  
  D12                   7.66033                  
  D13                 178.63358                  
  D14                 176.73731                  
  D15                -109.09904                  
  D16                -122.3566                   
  D17                -146.03219                  
  D18                  35.07085                  
  D19                  80.43125                  
  D20                 178.6391                   
  D21                  -1.41689                  
  D22                -173.71611                  
  D23                -179.20146                  
  D24                -177.16638                  
  D25                 -14.3596                   
  D26                  98.31428                  
  D27                -178.082                    
  D28                   1.02796                  
  D29                 175.15924                  
  D30                -178.88151                  
  D31                 178.71258                  
  D32                 -10.6166                   
  D33                  82.65481                  
  D34                 177.40963                  
  D35                  -2.54371                  
  D36                   2.87072                  
  D37                 178.72752                  
  D38                -177.64634                  
  D39                  -4.                       
  D40                 176.40023                  
  D41                -104.62301                  
  D42                  73.42056                  
  D43                -120.93192                  
  D44                  -0.90056                  
  D45                 118.93077                  
  D46                -161.97279                  
  D47                 -47.15236                  
  D48                  -2.3428                   
  D49                 115.78854                  
  D50                  13.44867                  
  D51                 133.26193                  
  D52                -107.21109                  
  D53                  -2.26989                  
  D54                 179.24434                  
  D55                  14.58566                  
  D56                -106.1841                   
  D57                 134.22465                  
  D58                 179.35361                  
  D59                 -61.26463                  
  D60                  59.52672                  
  D61                 143.1958                   
  D62                  26.04493                  
  D63                 -61.89956                  
  D64                  57.89628                  
  D65                -174.8246                   
  D66                -171.81323                  
  D67                 174.88792                  
  D68                -176.03729                  
  D69                -179.76218                  
  D70                  -1.18609                  
  D71                 170.46281                  
  D72                 165.64678                  
  D73                -178.68388                  
  D74                   4.25956                  
 
 NAtoms=     77 NQM=       77 NQMF=       0 NMMI=      0 NMMIF=      0
                NMic=       0 NMicF=      0.
                    Isotopes and Nuclear Properties:
 (Nuclear quadrupole moments (NQMom) in fm**2, nuclear magnetic moments (NMagM)
  in nuclear magnetons)

  Atom         1           2           3           4           5           6           7           8           9          10
 IAtWgt=          56          16          16          14          14          14          14          12          12          12
 AtmWgt=  55.9349393  15.9949146  15.9949146  14.0030740  14.0030740  14.0030740  14.0030740  12.0000000  12.0000000  12.0000000
 NucSpn=           0           0           0           2           2           2           2           0           0           0
 AtZEff=   0.0000000   0.0000000   0.0000000   0.0000000   0.0000000   0.0000000   0.0000000   0.0000000   0.0000000   0.0000000
 NQMom=    0.0000000   0.0000000   0.0000000   2.0440000   2.0440000   2.0440000   2.0440000   0.0000000   0.0000000   0.0000000
 NMagM=    0.0000000   0.0000000   0.0000000   0.4037610   0.4037610   0.4037610   0.4037610   0.0000000   0.0000000   0.0000000
 AtZNuc=  26.0000000   8.0000000   8.0000000   7.0000000   7.0000000   7.0000000   7.0000000   6.0000000   6.0000000   6.0000000

  Atom        11          12          13          14          15          16          17          18          19          20
 IAtWgt=          12          12          12          12          12          12          12          12          12          16
 AtmWgt=  12.0000000  12.0000000  12.0000000  12.0000000  12.0000000  12.0000000  12.0000000  12.0000000  12.0000000  15.9949146
 NucSpn=           0           0           0           0           0           0           0           0           0           0
 AtZEff=   0.0000000   0.0000000   0.0000000   0.0000000   0.0000000   0.0000000   0.0000000   0.0000000   0.0000000   0.0000000
 NQMom=    0.0000000   0.0000000   0.0000000   0.0000000   0.0000000   0.0000000   0.0000000   0.0000000   0.0000000   0.0000000
 NMagM=    0.0000000   0.0000000   0.0000000   0.0000000   0.0000000   0.0000000   0.0000000   0.0000000   0.0000000   0.0000000
 AtZNuc=   6.0000000   6.0000000   6.0000000   6.0000000   6.0000000   6.0000000   6.0000000   6.0000000   6.0000000   8.0000000

  Atom        21          22          23          24          25          26          27          28          29          30
 IAtWgt=          16          12          12          12          12          12          12          12          12          12
 AtmWgt=  15.9949146  12.0000000  12.0000000  12.0000000  12.0000000  12.0000000  12.0000000  12.0000000  12.0000000  12.0000000
 NucSpn=           0           0           0           0           0           0           0           0           0           0
 AtZEff=   0.0000000   0.0000000   0.0000000   0.0000000   0.0000000   0.0000000   0.0000000   0.0000000   0.0000000   0.0000000
 NQMom=    0.0000000   0.0000000   0.0000000   0.0000000   0.0000000   0.0000000   0.0000000   0.0000000   0.0000000   0.0000000
 NMagM=    0.0000000   0.0000000   0.0000000   0.0000000   0.0000000   0.0000000   0.0000000   0.0000000   0.0000000   0.0000000
 AtZNuc=   8.0000000   6.0000000   6.0000000   6.0000000   6.0000000   6.0000000   6.0000000   6.0000000   6.0000000   6.0000000

  Atom        31          32          33          34          35          36          37          38          39          40
 IAtWgt=          12          12          12          12          12          12          12          12          12          12
 AtmWgt=  12.0000000  12.0000000  12.0000000  12.0000000  12.0000000  12.0000000  12.0000000  12.0000000  12.0000000  12.0000000
 NucSpn=           0           0           0           0           0           0           0           0           0           0
 AtZEff=   0.0000000   0.0000000   0.0000000   0.0000000   0.0000000   0.0000000   0.0000000   0.0000000   0.0000000   0.0000000
 NQMom=    0.0000000   0.0000000   0.0000000   0.0000000   0.0000000   0.0000000   0.0000000   0.0000000   0.0000000   0.0000000
 NMagM=    0.0000000   0.0000000   0.0000000   0.0000000   0.0000000   0.0000000   0.0000000   0.0000000   0.0000000   0.0000000
 AtZNuc=   6.0000000   6.0000000   6.0000000   6.0000000   6.0000000   6.0000000   6.0000000   6.0000000   6.0000000   6.0000000

  Atom        41          42          43          44          45          46          47          48          49          50
 IAtWgt=          12          12          12          16          16           1           1           1           1           1
 AtmWgt=  12.0000000  12.0000000  12.0000000  15.9949146  15.9949146   1.0078250   1.0078250   1.0078250   1.0078250   1.0078250
 NucSpn=           0           0           0           0           0           1           1           1           1           1
 AtZEff=   0.0000000   0.0000000   0.0000000   0.0000000   0.0000000   0.0000000   0.0000000   0.0000000   0.0000000   0.0000000
 NQMom=    0.0000000   0.0000000   0.0000000   0.0000000   0.0000000   0.0000000   0.0000000   0.0000000   0.0000000   0.0000000
 NMagM=    0.0000000   0.0000000   0.0000000   0.0000000   0.0000000   2.7928460   2.7928460   2.7928460   2.7928460   2.7928460
 AtZNuc=   6.0000000   6.0000000   6.0000000   8.0000000   8.0000000   1.0000000   1.0000000   1.0000000   1.0000000   1.0000000

  Atom        51          52          53          54          55          56          57          58          59          60
 IAtWgt=           1           1           1           1           1           1           1           1           1           1
 AtmWgt=   1.0078250   1.0078250   1.0078250   1.0078250   1.0078250   1.0078250   1.0078250   1.0078250   1.0078250   1.0078250
 NucSpn=           1           1           1           1           1           1           1           1           1           1
 AtZEff=   0.0000000   0.0000000   0.0000000   0.0000000   0.0000000   0.0000000   0.0000000   0.0000000   0.0000000   0.0000000
 NQMom=    0.0000000   0.0000000   0.0000000   0.0000000   0.0000000   0.0000000   0.0000000   0.0000000   0.0000000   0.0000000
 NMagM=    2.7928460   2.7928460   2.7928460   2.7928460   2.7928460   2.7928460   2.7928460   2.7928460   2.7928460   2.7928460
 AtZNuc=   1.0000000   1.0000000   1.0000000   1.0000000   1.0000000   1.0000000   1.0000000   1.0000000   1.0000000   1.0000000

  Atom        61          62          63          64          65          66          67          68          69          70
 IAtWgt=           1           1           1           1           1           1           1           1           1           1
 AtmWgt=   1.0078250   1.0078250   1.0078250   1.0078250   1.0078250   1.0078250   1.0078250   1.0078250   1.0078250   1.0078250
 NucSpn=           1           1           1           1           1           1           1           1           1           1
 AtZEff=   0.0000000   0.0000000   0.0000000   0.0000000   0.0000000   0.0000000   0.0000000   0.0000000   0.0000000   0.0000000
 NQMom=    0.0000000   0.0000000   0.0000000   0.0000000   0.0000000   0.0000000   0.0000000   0.0000000   0.0000000   0.0000000
 NMagM=    2.7928460   2.7928460   2.7928460   2.7928460   2.7928460   2.7928460   2.7928460   2.7928460   2.7928460   2.7928460
 AtZNuc=   1.0000000   1.0000000   1.0000000   1.0000000   1.0000000   1.0000000   1.0000000   1.0000000   1.0000000   1.0000000

  Atom        71          72          73          74          75          76          77
 IAtWgt=           1           1           1           1           1           1           1
 AtmWgt=   1.0078250   1.0078250   1.0078250   1.0078250   1.0078250   1.0078250   1.0078250
 NucSpn=           1           1           1           1           1           1           1
 AtZEff=   0.0000000   0.0000000   0.0000000   0.0000000   0.0000000   0.0000000   0.0000000
 NQMom=    0.0000000   0.0000000   0.0000000   0.0000000   0.0000000   0.0000000   0.0000000
 NMagM=    2.7928460   2.7928460   2.7928460   2.7928460   2.7928460   2.7928460   2.7928460
 AtZNuc=   1.0000000   1.0000000   1.0000000   1.0000000   1.0000000   1.0000000   1.0000000
 Leave Link  101 at Mon Feb 29 09:23:08 2016, MaxMem=  2147483648 cpu:         2.4
 (Enter /nas02/apps/gaussian-09d01/em64t/g09/l103.exe)

 GradGradGradGradGradGradGradGradGradGradGradGradGradGradGradGradGradGrad
 Berny optimization.
 Initialization pass.
                       ----------------------------
                       !    Initial Parameters    !
                       ! (Angstroms and Degrees)  !
 ----------------------                            ----------------------
 !      Name          Value   Derivative information (Atomic Units)     !
 ------------------------------------------------------------------------
 !       B1          1.8267   calculate D2E/DX2 analytically            !
 !       B2          1.2165   calculate D2E/DX2 analytically            !
 !       B3          1.95     calculate D2E/DX2 analytically            !
 !       B4          1.9499   calculate D2E/DX2 analytically            !
 !       B5          1.9499   calculate D2E/DX2 analytically            !
 !       B6          1.95     calculate D2E/DX2 analytically            !
 !       B7          2.4614   calculate D2E/DX2 analytically            !
 !       B8          2.4726   calculate D2E/DX2 analytically            !
 !       B9          2.4661   calculate D2E/DX2 analytically            !
 !       B10         2.4582   calculate D2E/DX2 analytically            !
 !       B11         1.3641   calculate D2E/DX2 analytically            !
 !       B12         1.4774   calculate D2E/DX2 analytically            !
 !       B13         1.3709   calculate D2E/DX2 analytically            !
 !       B14         1.3567   calculate D2E/DX2 analytically            !
 !       B15         1.5002   calculate D2E/DX2 analytically            !
 !       B16         1.5097   calculate D2E/DX2 analytically            !
 !       B17         1.5661   calculate D2E/DX2 analytically            !
 !       B18         1.5177   calculate D2E/DX2 analytically            !
 !       B19         1.3522   calculate D2E/DX2 analytically            !
 !       B20         1.2548   calculate D2E/DX2 analytically            !
 !       B21         1.3785   calculate D2E/DX2 analytically            !
 !       B22         1.4511   calculate D2E/DX2 analytically            !
 !       B23         1.3916   calculate D2E/DX2 analytically            !
 !       B24         1.361    calculate D2E/DX2 analytically            !
 !       B25         1.5031   calculate D2E/DX2 analytically            !
 !       B26         1.4488   calculate D2E/DX2 analytically            !
 !       B27         1.3655   calculate D2E/DX2 analytically            !
 !       B28         1.376    calculate D2E/DX2 analytically            !
 !       B29         1.4531   calculate D2E/DX2 analytically            !
 !       B30         1.3923   calculate D2E/DX2 analytically            !
 !       B31         1.3609   calculate D2E/DX2 analytically            !
 !       B32         1.5025   calculate D2E/DX2 analytically            !
 !       B33         1.4485   calculate D2E/DX2 analytically            !
 !       B34         1.3657   calculate D2E/DX2 analytically            !
 !       B35         1.3706   calculate D2E/DX2 analytically            !
 !       B36         1.4681   calculate D2E/DX2 analytically            !
 !       B37         1.3756   calculate D2E/DX2 analytically            !
 !       B38         1.4778   calculate D2E/DX2 analytically            !
 !       B39         1.5026   calculate D2E/DX2 analytically            !
 !       B40         1.5007   calculate D2E/DX2 analytically            !
 !       B41         1.566    calculate D2E/DX2 analytically            !
 !       B42         1.5378   calculate D2E/DX2 analytically            !
 !       B43         1.2334   calculate D2E/DX2 analytically            !
 !       B44         1.3734   calculate D2E/DX2 analytically            !
 !       B45         1.0981   calculate D2E/DX2 analytically            !
 !       B46         1.0928   calculate D2E/DX2 analytically            !
 !       B47         1.0984   calculate D2E/DX2 analytically            !
 !       B48         1.0936   calculate D2E/DX2 analytically            !
 !       B49         1.097    calculate D2E/DX2 analytically            !
 !       B50         1.0995   calculate D2E/DX2 analytically            !
 !       B51         1.0928   calculate D2E/DX2 analytically            !
 !       B52         1.0929   calculate D2E/DX2 analytically            !
 !       B53         1.097    calculate D2E/DX2 analytically            !
 !       B54         1.0985   calculate D2E/DX2 analytically            !
 !       B55         1.0842   calculate D2E/DX2 analytically            !
 !       B56         1.0867   calculate D2E/DX2 analytically            !
 !       B57         1.0932   calculate D2E/DX2 analytically            !
 !       B58         1.0988   calculate D2E/DX2 analytically            !
 !       B59         1.0968   calculate D2E/DX2 analytically            !
 !       B60         1.0931   calculate D2E/DX2 analytically            !
 !       B61         1.0983   calculate D2E/DX2 analytically            !
 !       B62         1.0982   calculate D2E/DX2 analytically            !
 !       B63         1.0957   calculate D2E/DX2 analytically            !
 !       B64         1.0954   calculate D2E/DX2 analytically            !
 !       B65         1.097    calculate D2E/DX2 analytically            !
 !       B66         1.0931   calculate D2E/DX2 analytically            !
 !       B67         1.0849   calculate D2E/DX2 analytically            !
 !       B68         1.0826   calculate D2E/DX2 analytically            !
 !       B69         1.0825   calculate D2E/DX2 analytically            !
 !       B70         1.0817   calculate D2E/DX2 analytically            !
 !       B71         1.0866   calculate D2E/DX2 analytically            !
 !       B72         1.084    calculate D2E/DX2 analytically            !
 !       B73         1.0878   calculate D2E/DX2 analytically            !
 !       B74         1.0883   calculate D2E/DX2 analytically            !
 !       B75         0.987    calculate D2E/DX2 analytically            !
 !       B76         0.9926   calculate D2E/DX2 analytically            !
 !       A1        115.5146   calculate D2E/DX2 analytically            !
 !       A2         89.999    calculate D2E/DX2 analytically            !
 !       A3         90.0003   calculate D2E/DX2 analytically            !
 !       A4         89.9999   calculate D2E/DX2 analytically            !
 !       A5         89.9996   calculate D2E/DX2 analytically            !
 !       A6        101.9494   calculate D2E/DX2 analytically            !
 !       A7        100.6331   calculate D2E/DX2 analytically            !
 !       A8        100.4375   calculate D2E/DX2 analytically            !
 !       A9        100.1218   calculate D2E/DX2 analytically            !
 !       A10       129.7004   calculate D2E/DX2 analytically            !
 !       A11       113.4201   calculate D2E/DX2 analytically            !
 !       A12       106.1372   calculate D2E/DX2 analytically            !
 !       A13        96.0028   calculate D2E/DX2 analytically            !
 !       A14       129.6379   calculate D2E/DX2 analytically            !
 !       A15       125.1168   calculate D2E/DX2 analytically            !
 !       A16       115.8786   calculate D2E/DX2 analytically            !
 !       A17       112.7565   calculate D2E/DX2 analytically            !
 !       A18       112.9849   calculate D2E/DX2 analytically            !
 !       A19       123.7601   calculate D2E/DX2 analytically            !
 !       A20       129.3276   calculate D2E/DX2 analytically            !
 !       A21       113.94     calculate D2E/DX2 analytically            !
 !       A22       105.8474   calculate D2E/DX2 analytically            !
 !       A23        27.9257   calculate D2E/DX2 analytically            !
 !       A24       126.0167   calculate D2E/DX2 analytically            !
 !       A25       131.0141   calculate D2E/DX2 analytically            !
 !       A26       126.8962   calculate D2E/DX2 analytically            !
 !       A27       129.0473   calculate D2E/DX2 analytically            !
 !       A28       113.7637   calculate D2E/DX2 analytically            !
 !       A29       105.8732   calculate D2E/DX2 analytically            !
 !       A30        28.2811   calculate D2E/DX2 analytically            !
 !       A31       125.9405   calculate D2E/DX2 analytically            !
 !       A32       131.1179   calculate D2E/DX2 analytically            !
 !       A33       127.0052   calculate D2E/DX2 analytically            !
 !       A34       127.4835   calculate D2E/DX2 analytically            !
 !       A35       113.1944   calculate D2E/DX2 analytically            !
 !       A36       106.1141   calculate D2E/DX2 analytically            !
 !       A37       106.2381   calculate D2E/DX2 analytically            !
 !       A38       125.0041   calculate D2E/DX2 analytically            !
 !       A39       128.9258   calculate D2E/DX2 analytically            !
 !       A40       112.5305   calculate D2E/DX2 analytically            !
 !       A41       109.8774   calculate D2E/DX2 analytically            !
 !       A42       122.7399   calculate D2E/DX2 analytically            !
 !       A43       115.595    calculate D2E/DX2 analytically            !
 !       A44       111.4614   calculate D2E/DX2 analytically            !
 !       A45       111.5639   calculate D2E/DX2 analytically            !
 !       A46       111.5242   calculate D2E/DX2 analytically            !
 !       A47       108.5419   calculate D2E/DX2 analytically            !
 !       A48       109.036    calculate D2E/DX2 analytically            !
 !       A49       111.3313   calculate D2E/DX2 analytically            !
 !       A50       111.3427   calculate D2E/DX2 analytically            !
 !       A51       112.873    calculate D2E/DX2 analytically            !
 !       A52       110.7439   calculate D2E/DX2 analytically            !
 !       A53       111.4457   calculate D2E/DX2 analytically            !
 !       A54       123.6234   calculate D2E/DX2 analytically            !
 !       A55       120.1782   calculate D2E/DX2 analytically            !
 !       A56       112.7957   calculate D2E/DX2 analytically            !
 !       A57       111.5232   calculate D2E/DX2 analytically            !
 !       A58       110.7323   calculate D2E/DX2 analytically            !
 !       A59       111.1561   calculate D2E/DX2 analytically            !
 !       A60       111.6113   calculate D2E/DX2 analytically            !
 !       A61       111.8866   calculate D2E/DX2 analytically            !
 !       A62       110.0518   calculate D2E/DX2 analytically            !
 !       A63       109.427    calculate D2E/DX2 analytically            !
 !       A64       110.4597   calculate D2E/DX2 analytically            !
 !       A65       109.946    calculate D2E/DX2 analytically            !
 !       A66       147.9465   calculate D2E/DX2 analytically            !
 !       A67       145.4879   calculate D2E/DX2 analytically            !
 !       A68       147.7598   calculate D2E/DX2 analytically            !
 !       A69       146.8733   calculate D2E/DX2 analytically            !
 !       A70       120.1223   calculate D2E/DX2 analytically            !
 !       A71       123.7097   calculate D2E/DX2 analytically            !
 !       A72       116.6159   calculate D2E/DX2 analytically            !
 !       A73       116.5201   calculate D2E/DX2 analytically            !
 !       A74       115.0489   calculate D2E/DX2 analytically            !
 !       A75       116.1308   calculate D2E/DX2 analytically            !
 !       D1       -159.714    calculate D2E/DX2 analytically            !
 !       D2        110.3529   calculate D2E/DX2 analytically            !
 !       D3         20.0799   calculate D2E/DX2 analytically            !
 !       D4        -71.07     calculate D2E/DX2 analytically            !
 !       D5        -97.7512   calculate D2E/DX2 analytically            !
 !       D6         80.7776   calculate D2E/DX2 analytically            !
 !       D7        -97.7222   calculate D2E/DX2 analytically            !
 !       D8        -83.0713   calculate D2E/DX2 analytically            !
 !       D9         96.4525   calculate D2E/DX2 analytically            !
 !       D10      -173.7061   calculate D2E/DX2 analytically            !
 !       D11         0.9438   calculate D2E/DX2 analytically            !
 !       D12         7.6603   calculate D2E/DX2 analytically            !
 !       D13       178.6336   calculate D2E/DX2 analytically            !
 !       D14       176.7373   calculate D2E/DX2 analytically            !
 !       D15      -109.099    calculate D2E/DX2 analytically            !
 !       D16      -122.3566   calculate D2E/DX2 analytically            !
 !       D17      -146.0322   calculate D2E/DX2 analytically            !
 !       D18        35.0709   calculate D2E/DX2 analytically            !
 !       D19        80.4312   calculate D2E/DX2 analytically            !
 !       D20       178.6391   calculate D2E/DX2 analytically            !
 !       D21        -1.4169   calculate D2E/DX2 analytically            !
 !       D22      -173.7161   calculate D2E/DX2 analytically            !
 !       D23      -179.2015   calculate D2E/DX2 analytically            !
 !       D24      -177.1664   calculate D2E/DX2 analytically            !
 !       D25       -14.3596   calculate D2E/DX2 analytically            !
 !       D26        98.3143   calculate D2E/DX2 analytically            !
 !       D27      -178.082    calculate D2E/DX2 analytically            !
 !       D28         1.028    calculate D2E/DX2 analytically            !
 !       D29       175.1592   calculate D2E/DX2 analytically            !
 !       D30      -178.8815   calculate D2E/DX2 analytically            !
 !       D31       178.7126   calculate D2E/DX2 analytically            !
 !       D32       -10.6166   calculate D2E/DX2 analytically            !
 !       D33        82.6548   calculate D2E/DX2 analytically            !
 !       D34       177.4096   calculate D2E/DX2 analytically            !
 !       D35        -2.5437   calculate D2E/DX2 analytically            !
 !       D36         2.8707   calculate D2E/DX2 analytically            !
 !       D37       178.7275   calculate D2E/DX2 analytically            !
 !       D38      -177.6463   calculate D2E/DX2 analytically            !
 !       D39        -4.0      calculate D2E/DX2 analytically            !
 !       D40       176.4002   calculate D2E/DX2 analytically            !
 !       D41      -104.623    calculate D2E/DX2 analytically            !
 !       D42        73.4206   calculate D2E/DX2 analytically            !
 !       D43      -120.9319   calculate D2E/DX2 analytically            !
 !       D44        -0.9006   calculate D2E/DX2 analytically            !
 !       D45       118.9308   calculate D2E/DX2 analytically            !
 !       D46      -161.9728   calculate D2E/DX2 analytically            !
 !       D47       -47.1524   calculate D2E/DX2 analytically            !
 !       D48        -2.3428   calculate D2E/DX2 analytically            !
 !       D49       115.7885   calculate D2E/DX2 analytically            !
 !       D50        13.4487   calculate D2E/DX2 analytically            !
 !       D51       133.2619   calculate D2E/DX2 analytically            !
 !       D52      -107.2111   calculate D2E/DX2 analytically            !
 !       D53        -2.2699   calculate D2E/DX2 analytically            !
 !       D54       179.2443   calculate D2E/DX2 analytically            !
 !       D55        14.5857   calculate D2E/DX2 analytically            !
 !       D56      -106.1841   calculate D2E/DX2 analytically            !
 !       D57       134.2247   calculate D2E/DX2 analytically            !
 !       D58       179.3536   calculate D2E/DX2 analytically            !
 !       D59       -61.2646   calculate D2E/DX2 analytically            !
 !       D60        59.5267   calculate D2E/DX2 analytically            !
 !       D61       143.1958   calculate D2E/DX2 analytically            !
 !       D62        26.0449   calculate D2E/DX2 analytically            !
 !       D63       -61.8996   calculate D2E/DX2 analytically            !
 !       D64        57.8963   calculate D2E/DX2 analytically            !
 !       D65      -174.8246   calculate D2E/DX2 analytically            !
 !       D66      -171.8132   calculate D2E/DX2 analytically            !
 !       D67       174.8879   calculate D2E/DX2 analytically            !
 !       D68      -176.0373   calculate D2E/DX2 analytically            !
 !       D69      -179.7622   calculate D2E/DX2 analytically            !
 !       D70        -1.1861   calculate D2E/DX2 analytically            !
 !       D71       170.4628   calculate D2E/DX2 analytically            !
 !       D72       165.6468   calculate D2E/DX2 analytically            !
 !       D73      -178.6839   calculate D2E/DX2 analytically            !
 !       D74         4.2596   calculate D2E/DX2 analytically            !
 ------------------------------------------------------------------------
 Trust Radius=3.00D-01 FncErr=1.00D-07 GrdErr=1.00D-07
 Number of steps in this run=      2 maximum allowed number of steps=      2.
 GradGradGradGradGradGradGradGradGradGradGradGradGradGradGradGradGradGrad

 Leave Link  103 at Mon Feb 29 09:23:08 2016, MaxMem=  2147483648 cpu:         0.1
 (Enter /nas02/apps/gaussian-09d01/em64t/g09/l202.exe)
 Stoichiometry    C34H32FeN4O6(2+)
 Framework group  C1[X(C34H32FeN4O6)]
 Deg. of freedom   225
 Full point group                 C1      NOp   1
 Largest Abelian subgroup         C1      NOp   1
 Largest concise Abelian subgroup C1      NOp   1
                         Standard orientation:                         
 ---------------------------------------------------------------------
 Center     Atomic      Atomic             Coordinates (Angstroms)
 Number     Number       Type             X           Y           Z
 ---------------------------------------------------------------------
      1         26           0        1.069990   -0.051589   -0.022130
      2          8           0        1.223759    0.022673    1.796585
      3          8           0        1.488890    1.117542    2.255766
      4          7           0        0.042000   -1.701378    0.132182
      5          7           0        2.717608   -1.089983   -0.119043
      6          7           0        2.092034    1.601901   -0.176055
      7          7           0       -0.602721    0.945563    0.078592
      8          6           0       -2.277055   -0.855265   -0.032525
      9          6           0        1.868949   -3.345109    0.435977
     10          6           0        4.337053    0.690729   -0.656000
     11          6           0        0.307223    3.249650    0.200775
     12          6           0       -1.309157   -1.889065    0.135631
     13          6           0       -1.707677   -3.282803    0.420744
     14          6           0       -0.543650   -3.978361    0.621921
     15          6           0        0.554275   -3.010521    0.417326
     16          6           0       -0.340254   -5.422878    0.972273
     17          6           0       -3.130588   -3.768567    0.557408
     18          6           0       -3.926730   -3.937388   -0.780628
     19          6           0       -5.199126   -3.110801   -0.814969
     20          8           0       -6.200673   -3.711345   -1.496655
     21          8           0       -5.309267   -1.978019   -0.286507
     22          6           0        2.915340   -2.436942    0.097265
     23          6           0        4.286923   -2.869320   -0.096499
     24          6           0        4.991269   -1.734838   -0.488260
     25          6           0        4.004330   -0.615606   -0.468873
     26          6           0        4.799717   -4.274681    0.049938
     27          6           0        6.377603   -1.561756   -0.871982
     28          6           0        7.398223   -2.448290   -0.679818
     29          6           0        3.429517    1.771838   -0.451287
     30          6           0        3.856926    3.160655   -0.444330
     31          6           0        2.725358    3.905717   -0.123625
     32          6           0        1.612807    2.921589    0.001411
     33          6           0        5.245539    3.657489   -0.731643
     34          6           0        2.542458    5.331658    0.053577
     35          6           0        3.519984    6.281763    0.136218
     36          6           0       -0.759548    2.303627    0.176059
     37          6           0       -2.165835    2.725166    0.170580
     38          6           0       -2.907546    1.578341    0.006428
     39          6           0       -1.941152    0.460457   -0.013237
     40          6           0       -2.640342    4.145748    0.291781
     41          6           0       -4.395454    1.427442   -0.117989
     42          6           0       -5.153165    2.786692    0.057156
     43          6           0       -6.659759    2.578549   -0.170260
     44          8           0       -7.234391    2.936152   -1.201351
     45          8           0       -7.327312    1.926089    0.837189
     46          1           0        0.208469   -5.533758    1.916948
     47          1           0       -1.292600   -5.946875    1.084530
     48          1           0        0.230390   -5.949497    0.195401
     49          1           0       -3.120864   -4.732710    1.073476
     50          1           0       -3.681020   -3.083538    1.214086
     51          1           0       -3.323694   -3.628447   -1.646548
     52          1           0       -4.193623   -4.982592   -0.955469
     53          1           0        3.998518   -5.016601    0.095923
     54          1           0        5.437372   -4.546199   -0.800404
     55          1           0        5.401026   -4.389814    0.962007
     56          1           0        7.280725   -3.397648   -0.169496
     57          1           0        8.400936   -2.209963   -1.024266
     58          1           0        5.878326    2.898993   -1.200007
     59          1           0        5.754249    3.985270    0.185539
     60          1           0        5.217576    4.514065   -1.416155
     61          1           0       -3.731210    4.202251    0.249934
     62          1           0       -2.331734    4.595379    1.245154
     63          1           0       -2.250925    4.777903   -0.517457
     64          1           0       -4.633934    0.631737   -0.832584
     65          1           0       -4.823329    2.352993   -0.518302
     66          1           0       -4.975815    3.198326    1.058439
     67          1           0       -4.799825    3.508716   -0.683572
     68          1           0       -3.323532   -1.135559   -0.090064
     69          1           0        2.138492   -4.368329    0.664649
     70          1           0        0.032794    4.288788    0.329815
     71          1           0        5.360927    0.940773   -0.899253
     72          1           0        3.254782    7.326466    0.274203
     73          1           0        4.580068    6.059457    0.094158
     74          1           0        1.517404    5.683595    0.147353
     75          1           0        6.631969   -0.625796   -1.365549
     76          1           0       -7.037117   -3.190610   -1.555452
     77          1           0       -6.793773    1.707570    1.645166
 ---------------------------------------------------------------------
 Rotational constants (GHZ):      0.0902249      0.0521563      0.0344827
 Leave Link  202 at Mon Feb 29 09:23:08 2016, MaxMem=  2147483648 cpu:         0.0
 (Enter /nas02/apps/gaussian-09d01/em64t/g09/l301.exe)
 Standard basis: LANL2DZ (5D, 7F)
 Ernie: Thresh=  0.10000D-02 Tol=  0.10000D-05 Strict=F.
 Ernie:  1 primitive shells out of 806 were deleted.
 There are   484 symmetry adapted cartesian basis functions of A   symmetry.
 There are   482 symmetry adapted basis functions of A   symmetry.
   482 basis functions,  1280 primitive gaussians,   484 cartesian basis functions
   163 alpha electrons      163 beta electrons
       nuclear repulsion energy      5818.3905053611 Hartrees.
 IExCor=  402 DFT=T Ex+Corr=B3LYP ExCW=0 ScaHFX=  0.200000
 ScaDFX=  0.800000  0.720000  1.000000  0.810000 ScalE2=  1.000000  1.000000
 IRadAn=      0 IRanWt=     -1 IRanGd=            0 ICorTp=0 IEmpDi=  4
 NAtoms=   77 NActive=   77 NUniq=   77 SFac= 1.00D+00 NAtFMM=   60 NAOKFM=T Big=T
 Integral buffers will be    131072 words long.
 Raffenetti 2 integral format.
 Two-electron integral symmetry is turned on.
 Leave Link  301 at Mon Feb 29 09:23:09 2016, MaxMem=  2147483648 cpu:         0.6
 (Enter /nas02/apps/gaussian-09d01/em64t/g09/l302.exe)
 NPDir=0 NMtPBC=     1 NCelOv=     1 NCel=       1 NClECP=     1 NCelD=      1
         NCelK=      1 NCelE2=     1 NClLst=     1 CellRange=     0.0.
 One-electron integrals computed using PRISM.
   1 Symmetry operations used in ECPInt.
 ECPInt:  NShTT=   42778 NPrTT=  325758 LenC2=   34584 LenP2D=  131899.
 LDataN:  DoStor=T MaxTD1= 4 Len=   56
 NBasis=   482 RedAO= T EigKep=  4.32D-04  NBF=   482
 NBsUse=   482 1.00D-06 EigRej= -1.00D+00 NBFU=   482
 Precomputing XC quadrature grid using
 IXCGrd= 4 IRadAn=           0 IRanWt=          -1 IRanGd=           0 AccXCQ= 0.00D+00.
 Generated NRdTot=       0 NPtTot=           0 NUsed=           0 NTot=          32
 NSgBfM=   467   468   469   469   469 MxSgAt=    77 MxSgA2=    77.
 Leave Link  302 at Mon Feb 29 09:23:11 2016, MaxMem=  2147483648 cpu:        15.7
 (Enter /nas02/apps/gaussian-09d01/em64t/g09/l303.exe)
 DipDrv:  MaxL=1.
 Leave Link  303 at Mon Feb 29 09:23:11 2016, MaxMem=  2147483648 cpu:         1.4
 (Enter /nas02/apps/gaussian-09d01/em64t/g09/l401.exe)
 Initial guess from the checkpoint file:  "MBO_L_90.chk"
 B after Tr=     2.024074    0.090501   -0.147805
         Rot=    0.788434    0.017823   -0.040121   -0.613550 Ang=  75.92 deg.
 Guess basis will be translated and rotated to current coordinates.
 JPrj=2 DoOrth=T DoCkMO=T.
 Leave Link  401 at Mon Feb 29 09:23:12 2016, MaxMem=  2147483648 cpu:         8.6
 (Enter /nas02/apps/gaussian-09d01/em64t/g09/l502.exe)
 Closed shell SCF:
 Using DIIS extrapolation, IDIIS=  1040.
 Integral symmetry usage will be decided dynamically.
 IVT=      729022 IEndB=      729022 NGot=  2147483648 MDV=  2147006007
 LenX=  2147006007 LenY=  2146771267
 Requested convergence on RMS density matrix=1.00D-08 within 128 cycles.
 Requested convergence on MAX density matrix=1.00D-06.
 Requested convergence on             energy=1.00D-06.
 No special actions if energy rises.
 Fock matrices will be formed incrementally for  20 cycles.

 Cycle   1  Pass 1  IDiag  1:
 FoFJK:  IHMeth= 1 ICntrl=       0 DoSepK=F KAlg= 0 I1Cent=   0 FoldK=F
 IRaf= 990000000 NMat=   1 IRICut=       1 DoRegI=T DoRafI=F ISym2E= 0.
 FoFCou: FMM=T IPFlag=           0 FMFlag=      100000 FMFlg1=        2001
         NFxFlg=           0 DoJE=F BraDBF=F KetDBF=F FulRan=T
         wScrn=  0.000000 ICntrl=       0 IOpCl=  0 I1Cent=           0 NGrid=           0
         NMat0=    1 NMatS0=      1 NMatT0=    0 NMatD0=    1 NMtDS0=    0 NMtDT0=    0
 Symmetry not used in FoFCou.
 FMM levels:  10  Number of levels for PrismC:   9
 E= -2103.78441116908    
 DIIS: error= 3.45D-02 at cycle   1 NSaved=   1.
 NSaved= 1 IEnMin= 1 EnMin= -2103.78441116908     IErMin= 1 ErrMin= 3.45D-02
 ErrMax= 3.45D-02  0.00D+00 EMaxC= 1.00D-01 BMatC= 9.95D-01 BMatP= 9.95D-01
 IDIUse=3 WtCom= 6.55D-01 WtEn= 3.45D-01
 Coeff-Com:  0.100D+01
 Coeff-En:   0.100D+01
 Coeff:      0.100D+01
 Gap=     0.065 Goal=   None    Shift=    0.000
 GapD=    0.065 DampG=0.500 DampE=0.250 DampFc=0.1250 IDamp=-1.
 Damping current iteration by 1.25D-01
 RMSDP=8.00D-03 MaxDP=6.00D-01              OVMax= 9.74D-01

 Cycle   2  Pass 1  IDiag  1:
 RMSU=  9.72D-04    CP:  9.89D-01
 E= -2104.18612321574     Delta-E=       -0.401712046666 Rises=F Damp=T
 DIIS: error= 2.99D-02 at cycle   2 NSaved=   2.
 NSaved= 2 IEnMin= 2 EnMin= -2104.18612321574     IErMin= 2 ErrMin= 2.99D-02
 ErrMax= 2.99D-02  0.00D+00 EMaxC= 1.00D-01 BMatC= 7.21D-01 BMatP= 9.95D-01
 IDIUse=3 WtCom= 7.01D-01 WtEn= 2.99D-01
 Coeff-Com: -0.186D+01 0.286D+01
 Coeff-En:   0.000D+00 0.100D+01
 Coeff:     -0.130D+01 0.230D+01
 Gap=    -0.473 Goal=   None    Shift=    0.000
 RMSDP=1.79D-02 MaxDP=1.66D+00 DE=-4.02D-01 OVMax= 9.45D-01

 Cycle   3  Pass 1  IDiag  1:
 RMSU=  1.76D-02    CP:  9.43D-01  3.00D+00
 E= -2086.96752720142     Delta-E=       17.218596014319 Rises=F Damp=F
 DIIS: error= 1.64D-01 at cycle   3 NSaved=   3.
 NSaved= 3 IEnMin= 2 EnMin= -2104.18612321574     IErMin= 2 ErrMin= 2.99D-02
 ErrMax= 1.64D-01  0.00D+00 EMaxC= 1.00D-01 BMatC= 9.79D+00 BMatP= 7.21D-01
 IDIUse=2 WtCom= 0.00D+00 WtEn= 1.00D+00
 Coeff-En:   0.000D+00 0.949D+00 0.513D-01
 Coeff:      0.000D+00 0.949D+00 0.513D-01
 Gap=    -0.387 Goal=   None    Shift=    0.000
 RMSDP=1.79D-02 MaxDP=1.66D+00 DE= 1.72D+01 OVMax= 9.57D-01

 Cycle   4  Pass 1  IDiag  1:
 RMSU=  4.83D-03    CP:  9.16D-01  3.00D+00  2.25D-02
 E= -2105.48659984694     Delta-E=      -18.519072645519 Rises=F Damp=F
 DIIS: error= 7.71D-02 at cycle   4 NSaved=   4.
 NSaved= 4 IEnMin= 4 EnMin= -2105.48659984694     IErMin= 2 ErrMin= 2.99D-02
 ErrMax= 7.71D-02  0.00D+00 EMaxC= 1.00D-01 BMatC= 1.56D+00 BMatP= 7.21D-01
 IDIUse=2 WtCom= 0.00D+00 WtEn= 1.00D+00
 Coeff-En:   0.000D+00 0.000D+00 0.194D+00 0.806D+00
 Coeff:      0.000D+00 0.000D+00 0.194D+00 0.806D+00
 Gap=    -0.038 Goal=   None    Shift=    0.000
 RMSDP=6.08D-03 MaxDP=7.71D-01 DE=-1.85D+01 OVMax= 9.52D-01

 Cycle   5  Pass 1  IDiag  1:
 RMSU=  5.67D-03    CP:  9.11D-01  3.00D+00  8.53D-02  6.07D-01
 E= -2096.83277320672     Delta-E=        8.653826640220 Rises=F Damp=F
 DIIS: error= 1.43D-01 at cycle   5 NSaved=   5.
 NSaved= 5 IEnMin= 4 EnMin= -2105.48659984694     IErMin= 2 ErrMin= 2.99D-02
 ErrMax= 1.43D-01  0.00D+00 EMaxC= 1.00D-01 BMatC= 6.42D+00 BMatP= 7.21D-01
 IDIUse=2 WtCom= 0.00D+00 WtEn= 1.00D+00
 EnCoef did    21 forward-backward iterations
 Coeff-En:   0.000D+00 0.000D+00 0.841D-01 0.747D+00 0.169D+00
 Coeff:      0.000D+00 0.000D+00 0.841D-01 0.747D+00 0.169D+00
 Gap=     0.015 Goal=   None    Shift=    0.000
 RMSDP=5.21D-03 MaxDP=7.22D-01 DE= 8.65D+00 OVMax= 8.67D-01

 Cycle   6  Pass 1  IDiag  1:
 RMSU=  3.89D-03    CP:  9.15D-01  3.00D+00  7.42D-02  6.97D-01  3.94D-01
 E= -2104.78932578046     Delta-E=       -7.956552573743 Rises=F Damp=F
 DIIS: error= 5.32D-02 at cycle   6 NSaved=   6.
 NSaved= 6 IEnMin= 4 EnMin= -2105.48659984694     IErMin= 2 ErrMin= 2.99D-02
 ErrMax= 5.32D-02  0.00D+00 EMaxC= 1.00D-01 BMatC= 1.68D+00 BMatP= 7.21D-01
 IDIUse=2 WtCom= 0.00D+00 WtEn= 1.00D+00
 EnCoef did   100 forward-backward iterations
 Coeff-En:   0.000D+00 0.000D+00 0.694D-02 0.561D+00 0.188D+00 0.244D+00
 Coeff:      0.000D+00 0.000D+00 0.694D-02 0.561D+00 0.188D+00 0.244D+00
 Gap=     0.039 Goal=   None    Shift=    0.000
 RMSDP=4.20D-03 MaxDP=5.48D-01 DE=-7.96D+00 OVMax= 7.81D-01

 Cycle   7  Pass 1  IDiag  1:
 RMSU=  2.92D-03    CP:  9.19D-01  3.00D+00  5.63D-02  7.12D-01  3.31D-01
                    CP:  2.34D-01
 E= -2106.54501262996     Delta-E=       -1.755686849498 Rises=F Damp=F
 DIIS: error= 7.12D-02 at cycle   7 NSaved=   7.
 NSaved= 7 IEnMin= 7 EnMin= -2106.54501262996     IErMin= 2 ErrMin= 2.99D-02
 ErrMax= 7.12D-02  0.00D+00 EMaxC= 1.00D-01 BMatC= 8.67D-01 BMatP= 7.21D-01
 IDIUse=2 WtCom= 0.00D+00 WtEn= 1.00D+00
 EnCoef did     2 forward-backward iterations
 Coeff-En:   0.000D+00 0.000D+00 0.000D+00 0.277D+00 0.000D+00 0.204D+00
 Coeff-En:   0.519D+00
 Coeff:      0.000D+00 0.000D+00 0.000D+00 0.277D+00 0.000D+00 0.204D+00
 Coeff:      0.519D+00
 Gap=     0.051 Goal=   None    Shift=    0.000
 RMSDP=3.62D-03 MaxDP=4.44D-01 DE=-1.76D+00 OVMax= 8.73D-01

 Cycle   8  Pass 1  IDiag  1:
 RMSU=  2.38D-03    CP:  9.17D-01  3.00D+00  3.79D-02  7.57D-01  1.97D-01
                    CP:  4.13D-01  1.45D-01
 E= -2106.70802824323     Delta-E=       -0.163015613271 Rises=F Damp=F
 DIIS: error= 5.63D-02 at cycle   8 NSaved=   8.
 NSaved= 8 IEnMin= 8 EnMin= -2106.70802824323     IErMin= 2 ErrMin= 2.99D-02
 ErrMax= 5.63D-02  0.00D+00 EMaxC= 1.00D-01 BMatC= 5.56D-01 BMatP= 7.21D-01
 IDIUse=3 WtCom= 4.37D-01 WtEn= 5.63D-01
 EnCoef did     6 forward-backward iterations
 Coeff-Com: -0.228D+00 0.306D+00-0.105D-01 0.869D-01 0.328D-02 0.772D-01
 Coeff-Com:  0.405D+00 0.360D+00
 Coeff-En:   0.000D+00 0.000D+00 0.000D+00 0.468D-01 0.000D+00 0.000D+00
 Coeff-En:   0.464D+00 0.489D+00
 Coeff:     -0.996D-01 0.134D+00-0.458D-02 0.643D-01 0.143D-02 0.337D-01
 Coeff:      0.438D+00 0.433D+00
 Gap=     0.036 Goal=   None    Shift=    0.000
 RMSDP=3.10D-03 MaxDP=2.53D-01 DE=-1.63D-01 OVMax= 6.25D-01

 Cycle   9  Pass 1  IDiag  1:
 RMSU=  1.60D-03    CP:  9.21D-01  3.00D+00  4.61D-02  7.72D-01  2.39D-01
                    CP:  3.44D-01  6.36D-01  7.45D-02
 E= -2106.96987506299     Delta-E=       -0.261846819753 Rises=F Damp=F
 DIIS: error= 4.65D-02 at cycle   9 NSaved=   9.
 NSaved= 9 IEnMin= 9 EnMin= -2106.96987506299     IErMin= 2 ErrMin= 2.99D-02
 ErrMax= 4.65D-02  0.00D+00 EMaxC= 1.00D-01 BMatC= 3.54D-01 BMatP= 5.56D-01
 IDIUse=3 WtCom= 5.35D-01 WtEn= 4.65D-01
 EnCoef did     4 forward-backward iterations
 Coeff-Com: -0.273D+00 0.337D+00-0.763D-02-0.285D-01 0.748D-02 0.288D-03
 Coeff-Com:  0.324D+00 0.371D+00 0.269D+00
 Coeff-En:   0.000D+00 0.000D+00 0.000D+00 0.000D+00 0.000D+00 0.000D+00
 Coeff-En:   0.345D+00 0.395D+00 0.260D+00
 Coeff:     -0.146D+00 0.181D+00-0.408D-02-0.153D-01 0.400D-02 0.154D-03
 Coeff:      0.334D+00 0.382D+00 0.265D+00
 Gap=     0.046 Goal=   None    Shift=    0.000
 RMSDP=1.86D-03 MaxDP=1.17D-01 DE=-2.62D-01 OVMax= 3.45D-01

 Cycle  10  Pass 1  IDiag  1:
 RMSU=  9.98D-04    CP:  9.21D-01  3.00D+00  4.12D-02  7.07D-01  2.33D-01
                    CP:  3.15D-01  6.41D-01  5.29D-01  3.22D-01
 E= -2107.35921480749     Delta-E=       -0.389339744507 Rises=F Damp=F
 DIIS: error= 3.43D-03 at cycle  10 NSaved=  10.
 NSaved=10 IEnMin=10 EnMin= -2107.35921480749     IErMin=10 ErrMin= 3.43D-03
 ErrMax= 3.43D-03  0.00D+00 EMaxC= 1.00D-01 BMatC= 8.48D-03 BMatP= 3.54D-01
 IDIUse=3 WtCom= 9.66D-01 WtEn= 3.43D-02
 Coeff-Com: -0.116D+00 0.138D+00-0.423D-02-0.226D-01 0.731D-02-0.906D-02
 Coeff-Com:  0.745D-01 0.959D-01 0.102D+00 0.734D+00
 Coeff-En:   0.000D+00 0.000D+00 0.000D+00 0.000D+00 0.000D+00 0.000D+00
 Coeff-En:   0.000D+00 0.000D+00 0.000D+00 0.100D+01
 Coeff:     -0.112D+00 0.134D+00-0.408D-02-0.218D-01 0.705D-02-0.875D-02
 Coeff:      0.719D-01 0.926D-01 0.987D-01 0.743D+00
 Gap=     0.036 Goal=   None    Shift=    0.000
 RMSDP=8.78D-04 MaxDP=3.65D-02 DE=-3.89D-01 OVMax= 1.54D-01

 Cycle  11  Pass 1  IDiag  1:
 RMSU=  7.78D-04    CP:  9.21D-01  3.00D+00  3.73D-02  7.12D-01  2.26D-01
                    CP:  3.15D-01  5.55D-01  5.62D-01  4.45D-01  7.78D-01
 E= -2107.34151524932     Delta-E=        0.017699558171 Rises=F Damp=F
 DIIS: error= 1.04D-02 at cycle  11 NSaved=  11.
 NSaved=11 IEnMin=10 EnMin= -2107.35921480749     IErMin=10 ErrMin= 3.43D-03
 ErrMax= 1.04D-02  0.00D+00 EMaxC= 1.00D-01 BMatC= 2.59D-02 BMatP= 8.48D-03
 IDIUse=2 WtCom= 0.00D+00 WtEn= 1.00D+00
 Coeff-En:   0.000D+00 0.000D+00 0.000D+00 0.000D+00 0.000D+00 0.000D+00
 Coeff-En:   0.000D+00 0.000D+00 0.000D+00 0.667D+00 0.333D+00
 Coeff:      0.000D+00 0.000D+00 0.000D+00 0.000D+00 0.000D+00 0.000D+00
 Coeff:      0.000D+00 0.000D+00 0.000D+00 0.667D+00 0.333D+00
 Gap=     0.038 Goal=   None    Shift=    0.000
 RMSDP=9.01D-04 MaxDP=1.59D-01 DE= 1.77D-02 OVMax= 1.64D-01

 Cycle  12  Pass 1  IDiag  1:
 RMSU=  4.69D-04    CP:  9.21D-01  3.00D+00  3.98D-02  6.99D-01  2.78D-01
                    CP:  2.33D-01  6.99D-01  4.23D-01  3.10D-01  7.84D-01
                    CP:  6.80D-01
 E= -2107.21968631196     Delta-E=        0.121828937361 Rises=F Damp=F
 DIIS: error= 5.44D-02 at cycle  12 NSaved=  12.
 NSaved=12 IEnMin=10 EnMin= -2107.35921480749     IErMin=10 ErrMin= 3.43D-03
 ErrMax= 5.44D-02  0.00D+00 EMaxC= 1.00D-01 BMatC= 1.89D-01 BMatP= 8.48D-03
 IDIUse=2 WtCom= 0.00D+00 WtEn= 1.00D+00
 EnCoef did     3 forward-backward iterations
 Coeff-En:   0.000D+00 0.000D+00 0.000D+00 0.000D+00 0.000D+00 0.000D+00
 Coeff-En:   0.000D+00 0.000D+00 0.000D+00 0.602D+00 0.328D+00 0.699D-01
 Coeff:      0.000D+00 0.000D+00 0.000D+00 0.000D+00 0.000D+00 0.000D+00
 Coeff:      0.000D+00 0.000D+00 0.000D+00 0.602D+00 0.328D+00 0.699D-01
 Gap=     0.040 Goal=   None    Shift=    0.000
 RMSDP=5.63D-04 MaxDP=1.14D-01 DE= 1.22D-01 OVMax= 1.12D-01

 Cycle  13  Pass 1  IDiag  1:
 RMSU=  1.47D-04    CP:  9.21D-01  3.00D+00  3.93D-02  7.06D-01  2.47D-01
                    CP:  2.97D-01  6.18D-01  4.89D-01  3.87D-01  9.30D-01
                    CP:  5.78D-01  4.10D-01
 E= -2107.36652610558     Delta-E=       -0.146839793621 Rises=F Damp=F
 DIIS: error= 1.09D-02 at cycle  13 NSaved=  13.
 NSaved=13 IEnMin=13 EnMin= -2107.36652610558     IErMin=10 ErrMin= 3.43D-03
 ErrMax= 1.09D-02  0.00D+00 EMaxC= 1.00D-01 BMatC= 7.52D-03 BMatP= 8.48D-03
 IDIUse=3 WtCom= 9.66D-01 WtEn= 3.43D-02
 EnCoef did     3 forward-backward iterations
 Coeff-Com: -0.155D-02 0.224D-02-0.417D-03 0.413D-03 0.875D-03 0.642D-03
 Coeff-Com:  0.150D-02-0.366D-02-0.122D-01 0.336D+00 0.198D+00-0.636D-01
 Coeff-Com:  0.542D+00
 Coeff-En:   0.000D+00 0.000D+00 0.000D+00 0.000D+00 0.000D+00 0.000D+00
 Coeff-En:   0.000D+00 0.000D+00 0.000D+00 0.295D+00 0.152D+00 0.000D+00
 Coeff-En:   0.553D+00
 Coeff:     -0.150D-02 0.217D-02-0.403D-03 0.399D-03 0.845D-03 0.620D-03
 Coeff:      0.145D-02-0.353D-02-0.118D-01 0.334D+00 0.197D+00-0.614D-01
 Coeff:      0.542D+00
 Gap=     0.040 Goal=   None    Shift=    0.000
 RMSDP=2.52D-04 MaxDP=3.64D-02 DE=-1.47D-01 OVMax= 5.95D-02

 Cycle  14  Pass 1  IDiag  1:
 RMSU=  9.78D-05    CP:  9.21D-01  3.00D+00  3.86D-02  7.07D-01  2.33D-01
                    CP:  3.15D-01  5.82D-01  5.35D-01  3.63D-01  1.01D+00
                    CP:  5.22D-01  1.96D-01  9.59D-01
 E= -2107.37286275882     Delta-E=       -0.006336653236 Rises=F Damp=F
 DIIS: error= 2.46D-03 at cycle  14 NSaved=  14.
 NSaved=14 IEnMin=14 EnMin= -2107.37286275882     IErMin=14 ErrMin= 2.46D-03
 ErrMax= 2.46D-03  0.00D+00 EMaxC= 1.00D-01 BMatC= 9.11D-04 BMatP= 7.52D-03
 IDIUse=3 WtCom= 9.75D-01 WtEn= 2.46D-02
 Coeff-Com:  0.336D-03-0.428D-03 0.474D-05-0.143D-02 0.371D-03 0.712D-03
 Coeff-Com:  0.431D-02-0.564D-02-0.101D-01 0.138D+00 0.778D-01-0.435D-01
 Coeff-Com:  0.369D+00 0.471D+00
 Coeff-En:   0.000D+00 0.000D+00 0.000D+00 0.000D+00 0.000D+00 0.000D+00
 Coeff-En:   0.000D+00 0.000D+00 0.000D+00 0.000D+00 0.000D+00 0.000D+00
 Coeff-En:   0.182D+00 0.818D+00
 Coeff:      0.328D-03-0.418D-03 0.463D-05-0.139D-02 0.362D-03 0.694D-03
 Coeff:      0.420D-02-0.550D-02-0.982D-02 0.135D+00 0.758D-01-0.424D-01
 Coeff:      0.364D+00 0.479D+00
 Gap=     0.040 Goal=   None    Shift=    0.000
 RMSDP=6.07D-05 MaxDP=4.98D-03 DE=-6.34D-03 OVMax= 1.27D-02

 Cycle  15  Pass 1  IDiag  1:
 RMSU=  4.19D-05    CP:  9.21D-01  3.00D+00  3.90D-02  7.05D-01  2.35D-01
                    CP:  3.18D-01  5.86D-01  5.26D-01  3.63D-01  1.01D+00
                    CP:  5.33D-01  1.87D-01  1.16D+00  1.06D+00
 E= -2107.37347368168     Delta-E=       -0.000610922862 Rises=F Damp=F
 DIIS: error= 1.91D-03 at cycle  15 NSaved=  15.
 NSaved=15 IEnMin=15 EnMin= -2107.37347368168     IErMin=15 ErrMin= 1.91D-03
 ErrMax= 1.91D-03  0.00D+00 EMaxC= 1.00D-01 BMatC= 3.99D-04 BMatP= 9.11D-04
 IDIUse=3 WtCom= 9.81D-01 WtEn= 1.91D-02
 Coeff-Com:  0.203D-02-0.221D-02 0.697D-04-0.230D-02 0.103D-03 0.364D-03
 Coeff-Com:  0.196D-02-0.363D-02-0.590D-02 0.172D-01-0.638D-03-0.357D-02
 Coeff-Com:  0.161D+00 0.306D+00 0.530D+00
 Coeff-En:   0.000D+00 0.000D+00 0.000D+00 0.000D+00 0.000D+00 0.000D+00
 Coeff-En:   0.000D+00 0.000D+00 0.000D+00 0.000D+00 0.000D+00 0.000D+00
 Coeff-En:   0.752D-01 0.000D+00 0.925D+00
 Coeff:      0.199D-02-0.217D-02 0.684D-04-0.225D-02 0.102D-03 0.357D-03
 Coeff:      0.192D-02-0.356D-02-0.579D-02 0.168D-01-0.626D-03-0.350D-02
 Coeff:      0.159D+00 0.300D+00 0.538D+00
 Gap=     0.040 Goal=   None    Shift=    0.000
 RMSDP=4.03D-05 MaxDP=5.08D-03 DE=-6.11D-04 OVMax= 8.32D-03

 Cycle  16  Pass 1  IDiag  1:
 RMSU=  2.33D-05    CP:  9.21D-01  3.00D+00  3.90D-02  7.04D-01  2.35D-01
                    CP:  3.19D-01  5.86D-01  5.25D-01  3.59D-01  1.02D+00
                    CP:  5.40D-01  1.95D-01  1.30D+00  1.26D+00  1.16D+00
 E= -2107.37371760967     Delta-E=       -0.000243927993 Rises=F Damp=F
 DIIS: error= 1.34D-03 at cycle  16 NSaved=  16.
 NSaved=16 IEnMin=16 EnMin= -2107.37371760967     IErMin=16 ErrMin= 1.34D-03
 ErrMax= 1.34D-03  0.00D+00 EMaxC= 1.00D-01 BMatC= 2.11D-04 BMatP= 3.99D-04
 IDIUse=3 WtCom= 9.87D-01 WtEn= 1.34D-02
 Coeff-Com:  0.107D-02-0.879D-03-0.131D-03-0.180D-02 0.224D-03-0.219D-03
 Coeff-Com:  0.317D-03-0.215D-02-0.319D-02-0.134D-01-0.158D-01 0.165D-01
 Coeff-Com:  0.207D-01-0.566D-01 0.283D+00 0.772D+00
 Coeff-En:   0.000D+00 0.000D+00 0.000D+00 0.000D+00 0.000D+00 0.000D+00
 Coeff-En:   0.000D+00 0.000D+00 0.000D+00 0.000D+00 0.000D+00 0.000D+00
 Coeff-En:   0.954D-02 0.000D+00 0.000D+00 0.990D+00
 Coeff:      0.105D-02-0.867D-03-0.129D-03-0.177D-02 0.221D-03-0.216D-03
 Coeff:      0.313D-03-0.213D-02-0.315D-02-0.132D-01-0.156D-01 0.163D-01
 Coeff:      0.205D-01-0.559D-01 0.279D+00 0.775D+00
 Gap=     0.040 Goal=   None    Shift=    0.000
 RMSDP=3.94D-05 MaxDP=4.54D-03 DE=-2.44D-04 OVMax= 7.75D-03

 Cycle  17  Pass 1  IDiag  1:
 RMSU=  1.38D-05    CP:  9.21D-01  3.00D+00  3.90D-02  7.03D-01  2.35D-01
                    CP:  3.21D-01  5.85D-01  5.25D-01  3.56D-01  1.03D+00
                    CP:  5.49D-01  1.97D-01  1.40D+00  1.47D+00  1.60D+00
                    CP:  1.39D+00
 E= -2107.37384749771     Delta-E=       -0.000129888039 Rises=F Damp=F
 DIIS: error= 1.10D-03 at cycle  17 NSaved=  17.
 NSaved=17 IEnMin=17 EnMin= -2107.37384749771     IErMin=17 ErrMin= 1.10D-03
 ErrMax= 1.10D-03  0.00D+00 EMaxC= 1.00D-01 BMatC= 1.24D-04 BMatP= 2.11D-04
 IDIUse=3 WtCom= 9.89D-01 WtEn= 1.10D-02
 Coeff-Com: -0.127D-02 0.164D-02-0.233D-03-0.905D-03 0.222D-03-0.386D-03
 Coeff-Com: -0.964D-03-0.119D-02-0.136D-03-0.351D-02-0.773D-02 0.224D-01
 Coeff-Com: -0.454D-01-0.265D+00-0.113D+00 0.593D+00 0.822D+00
 Coeff-En:   0.000D+00 0.000D+00 0.000D+00 0.000D+00 0.000D+00 0.000D+00
 Coeff-En:   0.000D+00 0.000D+00 0.000D+00 0.000D+00 0.000D+00 0.000D+00
 Coeff-En:   0.000D+00 0.000D+00 0.000D+00 0.000D+00 0.100D+01
 Coeff:     -0.125D-02 0.162D-02-0.230D-03-0.895D-03 0.219D-03-0.381D-03
 Coeff:     -0.953D-03-0.117D-02-0.134D-03-0.347D-02-0.765D-02 0.222D-01
 Coeff:     -0.449D-01-0.262D+00-0.112D+00 0.587D+00 0.824D+00
 Gap=     0.040 Goal=   None    Shift=    0.000
 RMSDP=3.92D-05 MaxDP=5.11D-03 DE=-1.30D-04 OVMax= 8.25D-03

 Cycle  18  Pass 1  IDiag  1:
 RMSU=  1.06D-05    CP:  9.21D-01  3.00D+00  3.91D-02  7.02D-01  2.35D-01
                    CP:  3.22D-01  5.84D-01  5.23D-01  3.53D-01  1.04D+00
                    CP:  5.58D-01  2.03D-01  1.52D+00  1.65D+00  1.99D+00
                    CP:  2.11D+00  1.31D+00
 E= -2107.37396069667     Delta-E=       -0.000113198957 Rises=F Damp=F
 DIIS: error= 5.21D-04 at cycle  18 NSaved=  18.
 NSaved=18 IEnMin=18 EnMin= -2107.37396069667     IErMin=18 ErrMin= 5.21D-04
 ErrMax= 5.21D-04  0.00D+00 EMaxC= 1.00D-01 BMatC= 2.58D-05 BMatP= 1.24D-04
 IDIUse=3 WtCom= 9.95D-01 WtEn= 5.21D-03
 Coeff-Com: -0.123D-02 0.142D-02-0.345D-04-0.128D-03 0.193D-04-0.198D-03
 Coeff-Com: -0.248D-03-0.672D-03 0.793D-03 0.436D-02-0.260D-02 0.617D-02
 Coeff-Com:  0.698D-03-0.106D+00-0.105D+00-0.583D-01 0.457D+00 0.803D+00
 Coeff-En:   0.000D+00 0.000D+00 0.000D+00 0.000D+00 0.000D+00 0.000D+00
 Coeff-En:   0.000D+00 0.000D+00 0.000D+00 0.000D+00 0.000D+00 0.000D+00
 Coeff-En:   0.000D+00 0.000D+00 0.000D+00 0.000D+00 0.000D+00 0.100D+01
 Coeff:     -0.123D-02 0.141D-02-0.343D-04-0.127D-03 0.192D-04-0.197D-03
 Coeff:     -0.247D-03-0.668D-03 0.788D-03 0.434D-02-0.259D-02 0.614D-02
 Coeff:      0.694D-03-0.105D+00-0.104D+00-0.580D-01 0.455D+00 0.804D+00
 Gap=     0.040 Goal=   None    Shift=    0.000
 RMSDP=1.91D-05 MaxDP=2.34D-03 DE=-1.13D-04 OVMax= 3.91D-03

 Cycle  19  Pass 1  IDiag  1:
 RMSU=  7.26D-06    CP:  9.21D-01  3.00D+00  3.91D-02  7.01D-01  2.36D-01
                    CP:  3.23D-01  5.85D-01  5.22D-01  3.52D-01  1.04D+00
                    CP:  5.59D-01  2.08D-01  1.56D+00  1.74D+00  2.20D+00
                    CP:  2.37D+00  1.72D+00  1.13D+00
 E= -2107.37398734166     Delta-E=       -0.000026644994 Rises=F Damp=F
 DIIS: error= 8.62D-05 at cycle  19 NSaved=  19.
 NSaved=19 IEnMin=19 EnMin= -2107.37398734166     IErMin=19 ErrMin= 8.62D-05
 ErrMax= 8.62D-05  0.00D+00 EMaxC= 1.00D-01 BMatC= 2.42D-06 BMatP= 2.58D-05
 IDIUse=1 WtCom= 1.00D+00 WtEn= 0.00D+00
 Coeff-Com: -0.248D-03 0.260D-03 0.144D-04 0.978D-04-0.491D-04-0.107D-03
 Coeff-Com:  0.311D-03-0.187D-03 0.645D-03 0.196D-02-0.247D-02-0.202D-02
 Coeff-Com:  0.189D-01-0.532D-02-0.230D-01-0.211D+00 0.100D+00 0.616D+00
 Coeff-Com:  0.506D+00
 Coeff:     -0.248D-03 0.260D-03 0.144D-04 0.978D-04-0.491D-04-0.107D-03
 Coeff:      0.311D-03-0.187D-03 0.645D-03 0.196D-02-0.247D-02-0.202D-02
 Coeff:      0.189D-01-0.532D-02-0.230D-01-0.211D+00 0.100D+00 0.616D+00
 Coeff:      0.506D+00
 Gap=     0.040 Goal=   None    Shift=    0.000
 RMSDP=7.31D-06 MaxDP=7.07D-04 DE=-2.66D-05 OVMax= 1.09D-03

 Cycle  20  Pass 1  IDiag  1:
 RMSU=  3.51D-06    CP:  9.21D-01  3.00D+00  3.91D-02  7.01D-01  2.36D-01
                    CP:  3.23D-01  5.85D-01  5.21D-01  3.52D-01  1.04D+00
                    CP:  5.60D-01  2.11D-01  1.58D+00  1.76D+00  2.25D+00
                    CP:  2.49D+00  1.86D+00  1.34D+00  8.23D-01
 E= -2107.37399069095     Delta-E=       -0.000003349283 Rises=F Damp=F
 DIIS: error= 3.43D-05 at cycle  20 NSaved=  20.
 NSaved=20 IEnMin=20 EnMin= -2107.37399069095     IErMin=20 ErrMin= 3.43D-05
 ErrMax= 3.43D-05  0.00D+00 EMaxC= 1.00D-01 BMatC= 1.97D-07 BMatP= 2.42D-06
 IDIUse=1 WtCom= 1.00D+00 WtEn= 0.00D+00
 Coeff-Com:  0.196D-04-0.353D-04 0.128D-04 0.115D-03-0.284D-04-0.299D-04
 Coeff-Com:  0.398D-03-0.559D-04 0.175D-03-0.741D-04-0.934D-03-0.302D-02
 Coeff-Com:  0.118D-01 0.184D-01 0.980D-02-0.110D+00-0.173D-01 0.186D+00
 Coeff-Com:  0.273D+00 0.632D+00
 Coeff:      0.196D-04-0.353D-04 0.128D-04 0.115D-03-0.284D-04-0.299D-04
 Coeff:      0.398D-03-0.559D-04 0.175D-03-0.741D-04-0.934D-03-0.302D-02
 Coeff:      0.118D-01 0.184D-01 0.980D-02-0.110D+00-0.173D-01 0.186D+00
 Coeff:      0.273D+00 0.632D+00
 Gap=     0.040 Goal=   None    Shift=    0.000
 RMSDP=2.34D-06 MaxDP=2.37D-04 DE=-3.35D-06 OVMax= 3.60D-04

 Cycle  21  Pass 1  IDiag  1:
 Restarting incremental Fock formation.
 E= -2107.37399105642     Delta-E=       -0.000000365470 Rises=F Damp=F
 DIIS: error= 1.46D-05 at cycle  21 NSaved=  20.
 NSaved=20 IEnMin=20 EnMin= -2107.37399105642     IErMin=20 ErrMin= 1.46D-05
 ErrMax= 1.46D-05  0.00D+00 EMaxC= 1.00D-01 BMatC= 5.10D-08 BMatP= 1.97D-07
 IDIUse=1 WtCom= 1.00D+00 WtEn= 0.00D+00
 Coeff-Com:  0.122D-04-0.222D-04 0.237D-04-0.348D-05 0.986D-05 0.144D-03
 Coeff-Com: -0.138D-04 0.323D-04-0.874D-03-0.622D-04-0.102D-02 0.638D-03
 Coeff-Com:  0.136D-01 0.127D-01-0.185D-01-0.288D-01-0.476D-01 0.476D-01
 Coeff-Com:  0.388D+00 0.635D+00
 Coeff:      0.122D-04-0.222D-04 0.237D-04-0.348D-05 0.986D-05 0.144D-03
 Coeff:     -0.138D-04 0.323D-04-0.874D-03-0.622D-04-0.102D-02 0.638D-03
 Coeff:      0.136D-01 0.127D-01-0.185D-01-0.288D-01-0.476D-01 0.476D-01
 Coeff:      0.388D+00 0.635D+00
 Gap=     0.040 Goal=   None    Shift=    0.000
 RMSDP=1.76D-06 MaxDP=2.12D-04 DE=-3.65D-07 OVMax= 3.01D-04

 Cycle  22  Pass 1  IDiag  1:
 RMSU=  1.76D-06    CP:  1.00D+00
 E= -2107.37399121599     Delta-E=       -0.000000159574 Rises=F Damp=F
 DIIS: error= 8.41D-06 at cycle  22 NSaved=  20.
 NSaved=20 IEnMin=20 EnMin= -2107.37399121599     IErMin=20 ErrMin= 8.41D-06
 ErrMax= 8.41D-06  0.00D+00 EMaxC= 1.00D-01 BMatC= 2.85D-08 BMatP= 5.10D-08
 IDIUse=1 WtCom= 1.00D+00 WtEn= 0.00D+00
 Coeff-Com: -0.296D-04 0.338D-04-0.748D-05 0.139D-04-0.175D-04 0.133D-04
 Coeff-Com: -0.263D-04-0.487D-03 0.301D-03 0.116D-03-0.289D-02 0.509D-02
 Coeff-Com:  0.484D-02 0.713D-02-0.153D-01-0.772D-01-0.387D-01 0.755D-01
 Coeff-Com:  0.424D+00 0.617D+00
 Coeff:     -0.296D-04 0.338D-04-0.748D-05 0.139D-04-0.175D-04 0.133D-04
 Coeff:     -0.263D-04-0.487D-03 0.301D-03 0.116D-03-0.289D-02 0.509D-02
 Coeff:      0.484D-02 0.713D-02-0.153D-01-0.772D-01-0.387D-01 0.755D-01
 Coeff:      0.424D+00 0.617D+00
 Gap=     0.040 Goal=   None    Shift=    0.000
 RMSDP=1.53D-06 MaxDP=1.84D-04 DE=-1.60D-07 OVMax= 2.59D-04

 Cycle  23  Pass 1  IDiag  1:
 RMSU=  9.86D-07    CP:  1.00D+00  1.66D+00
 E= -2107.37399130849     Delta-E=       -0.000000092505 Rises=F Damp=F
 DIIS: error= 5.18D-06 at cycle  23 NSaved=  20.
 NSaved=20 IEnMin=20 EnMin= -2107.37399130849     IErMin=20 ErrMin= 5.18D-06
 ErrMax= 5.18D-06  0.00D+00 EMaxC= 1.00D-01 BMatC= 4.64D-09 BMatP= 2.85D-08
 IDIUse=1 WtCom= 1.00D+00 WtEn= 0.00D+00
 Coeff-Com:  0.821D-06-0.105D-04 0.342D-05-0.402D-04 0.269D-04-0.365D-04
 Coeff-Com: -0.482D-04 0.158D-03 0.263D-03-0.156D-02-0.143D-02-0.352D-03
 Coeff-Com:  0.879D-02-0.154D-02-0.295D-01-0.309D-01-0.504D-01 0.623D-01
 Coeff-Com:  0.357D+00 0.688D+00
 Coeff:      0.821D-06-0.105D-04 0.342D-05-0.402D-04 0.269D-04-0.365D-04
 Coeff:     -0.482D-04 0.158D-03 0.263D-03-0.156D-02-0.143D-02-0.352D-03
 Coeff:      0.879D-02-0.154D-02-0.295D-01-0.309D-01-0.504D-01 0.623D-01
 Coeff:      0.357D+00 0.688D+00
 Gap=     0.040 Goal=   None    Shift=    0.000
 RMSDP=8.05D-07 MaxDP=1.29D-04 DE=-9.25D-08 OVMax= 1.30D-04

 Cycle  24  Pass 1  IDiag  1:
 RMSU=  4.43D-07    CP:  1.00D+00  2.02D+00  1.22D+00
 E= -2107.37399133856     Delta-E=       -0.000000030065 Rises=F Damp=F
 DIIS: error= 4.87D-06 at cycle  24 NSaved=  20.
 NSaved=20 IEnMin=20 EnMin= -2107.37399133856     IErMin=20 ErrMin= 4.87D-06
 ErrMax= 4.87D-06  0.00D+00 EMaxC= 1.00D-01 BMatC= 3.60D-09 BMatP= 4.64D-09
 IDIUse=1 WtCom= 1.00D+00 WtEn= 0.00D+00
 Coeff-Com: -0.769D-05-0.229D-05-0.212D-04 0.182D-04-0.947D-05 0.334D-03
 Coeff-Com: -0.184D-04 0.150D-03 0.291D-03-0.535D-02-0.405D-02 0.579D-02
 Coeff-Com:  0.961D-02 0.219D-01-0.526D-02-0.903D-01-0.210D+00-0.652D-01
 Coeff-Com:  0.539D+00 0.803D+00
 Coeff:     -0.769D-05-0.229D-05-0.212D-04 0.182D-04-0.947D-05 0.334D-03
 Coeff:     -0.184D-04 0.150D-03 0.291D-03-0.535D-02-0.405D-02 0.579D-02
[...]
 577143,-0.00001236,0.00000879,0.00014801,-0.00006073,-0.00002592,-0.00
 001680,0.00003469,0.00004524,0.00000587,0.00000774,-0.00000420,0.00000
 371,-0.00000403,0.00000334,-0.00000426,-0.00000261,0.00000030,0.000003
 90,-0.00003299,0.00000142,0.00001574,0.00005869,0.00006621,0.00002384,
 -0.00000868,-0.00000882,-0.00000516,-0.00002095,-0.00000432,0.00000192
 ,-0.00000914,-0.00000075,0.00000123,-0.00000537,-0.00000098,0.00000178
 ,-0.00000051,-0.00000033,-0.00000828,-0.00089814,-0.00062066,0.0009022
 8,0.00000275,0.00000603,0.00000213,-0.00000892,0.00000164,0.00000305,-
 0.00000018,0.00000363,0.00001134,-0.11991414,0.01171515,0.07760724,0.0
 0000097,0.00004962,0.00001758,-0.00005138,0.00000019,-0.00003849,0.000
 04791,-0.00001251,0.00003830,-0.00008266,-0.00006996,0.00001745,-0.000
 03482,-0.00001351,0.00000656,0.00001701,-0.00003259,-0.00001228,-0.000
 13444,0.00003103,-0.00002315,-0.00007447,-0.00007063,0.00006275,0.0000
 4590,-0.00009227,-0.00000088,0.00003436,0.00003045,0.00000443,-0.00001
 028,0.00002336,-0.00001122,0.00014673,0.00016288,-0.00002156,0.0000501
 7,-0.00005091,-0.00002731,0.00003146,0.00008261,0.00000200,0.00004588,
 0.00006071,-0.00002542,-0.00001342,-0.00002272,0.00000216,0.00064898,0
 .00057949,0.00008100,-0.00038656,-0.00047956,-0.00441789,0.00938858,0.
 03342191,-0.00674424,-0.08858519,-0.16330170,0.01331145,-0.00247351,-0
 .00336065,0.00307202,-0.00006456,0.00012061,0.00001534,0.00007323,-0.0
 0005432,-0.00002064,-0.00002395,0.00009595,0.00001190,-0.00004831,-0.0
 0005878,0.00000227,-0.00000170,0.,-0.00000119,-0.00002791,-0.00009881,
 0.00001238,0.00003800,0.00004237,-0.00001095,-0.00005253,-0.00001197,-
 0.00000379,0.00001433,0.00003967,0.00000568,-0.00008834,0.00001409,-0.
 00000885,0.00006364,-0.00003759,0.00000395,0.00000196,-0.00000280,-0.0
 0000177,0.00007895,-0.00002968,0.00001437,-0.00003379,0.00003244,-0.00
 000386,0.00013989,0.00016306,-0.00000984,0.00019718,-0.00022430,0.0000
 8746,-0.00020278,0.00023299,-0.00002634,0.00001745,-0.00012123,-0.0000
 2058,-0.00000904,0.00001084,-0.00001337,0.00001613,-0.00034264,-0.0000
 4630,-0.00001290,-0.00006598,-0.00005937,-0.00013440,0.00014830,-0.000
 20794,0.00009351,-0.00003136,0.00013872,0.00012529,0.00003788,0.000105
 49,0.00000077,-0.00000396,-0.00000055,-0.00000336,0.00000515,-0.000005
 08,0.00000403,0.00000042,0.00000128,-0.00005395,0.00003804,-0.00013768
 ,0.00002031,-0.00008110,0.00008741,-0.00013590,-0.00053333,0.00022704,
 0.00061667,0.00045761,-0.00004603,0.00000064,0.00000801,-0.00000061,0.
 00000484,-0.00000328,0.00000029,0.00000145,-0.00000310,0.00000083,0.00
 000073,0.00000370,-0.00000101,-0.00000006,0.00000122,-0.00000092,-0.00
 000488,-0.00000028,-0.00000064,0.00000151,0.00000027,0.00000092,0.0000
 0152,0.00000269,0.00000127,-0.00000383,-0.00000029,-0.00000302,0.00000
 051,-0.00000018,0.00000405,-0.00000182,-0.00000205,-0.00000046,-0.0001
 7158,0.00011340,-0.00000804,0.00005024,0.00015390,0.00005556,-0.000013
 33,-0.00001880,-0.00000883,-0.00003335,-0.00000228,-0.00001630,-0.0000
 9356,0.00010424,-0.00006966,0.00000270,-0.00000340,-0.00000382,0.00000
 163,0.,-0.00000284,-0.00000187,-0.00000068,0.00000029,-0.00000080,0.00
 000072,-0.00000079,-0.00000302,0.00000079,-0.00000202,-0.00000107,0.00
 000206,-0.00000403,0.00000040,0.00000119,-0.00000472,0.08109138,0.0000
 2486,-0.00006820,-0.00004215,0.00005568,-0.00000382,0.00005984,-0.0000
 5850,0.00001203,-0.00003992,0.00005991,0.00008020,-0.00001797,0.000040
 16,0.00002868,-0.00000265,-0.00001734,0.00009629,0.00002600,-0.0001246
 3,0.00001360,-0.00001803,-0.00003239,0.00001712,-0.00002819,-0.0000288
 3,0.00007991,-0.00000108,0.00000356,-0.00000976,-0.00000135,-0.0000219
 9,0.00005645,0.00000939,-0.00017723,-0.00006476,0.00004498,0.00009494,
 -0.00013923,0.00031707,0.00003178,-0.00003703,-0.00000147,-0.00005133,
 -0.00003954,-0.00002096,0.00001119,0.00001821,0.00001268,-0.00005359,-
 0.00095404,-0.00080808,0.00252649,0.00242247,0.00487686,-0.01436254,-0
 .03014014,0.00199530,-0.11845104,-0.39441076,0.05870481,-0.00365677,0.
 00427010,-0.00546516,0.00005051,-0.00014312,-0.00000606,-0.00008632,0.
 00007644,0.00002479,0.00004580,-0.00009493,-0.00001671,0.00001789,0.00
 004893,-0.00000177,0.00000376,-0.00000231,0.00000193,0.00003287,0.0001
 0697,-0.00001338,-0.00004072,-0.00004746,0.00001192,0.00007110,-0.0000
 4940,-0.00000118,-0.00003652,-0.00006687,-0.00001141,0.00012216,-0.000
 00259,0.00001420,-0.00011424,-0.00000690,-0.00001991,-0.00000228,0.000
 00411,0.00000180,-0.00011747,0.00004713,-0.00002010,0.00005124,-0.0000
 4804,0.00000760,0.00003816,-0.00007472,0.00002165,-0.00010714,0.000158
 80,-0.00003980,0.00016541,-0.00008145,-0.00000239,0.00010762,0.0000355
 2,-0.00000908,0.00000388,-0.00000105,0.00000243,0.00002721,0.00008325,
 0.00006909,-0.00001838,0.00000240,0.00009493,-0.00007617,0.00028203,-0
 .00003181,0.00005243,-0.00011857,0.00003214,0.00006432,-0.00011448,-0.
 00004365,-0.00000532,0.00000431,-0.00000558,-0.00001649,-0.00001006,0.
 00000968,-0.00000441,0.00000376,0.00000330,0.00004388,0.00005748,0.000
 06014,0.00001676,0.00001656,0.00011654,0.00015222,0.00006648,-0.000424
 86,0.00015913,0.00076113,-0.00026080,-0.00000276,-0.00000802,0.0000002
 4,-0.00000542,0.00000377,0.00000045,-0.00000127,0.00000240,-0.00000178
 ,-0.00000090,-0.00000505,0.00000149,-0.00000034,-0.00000105,0.00000087
 ,0.00000650,0.00000081,0.00000050,-0.00000158,0.00000029,-0.00000098,-
 0.00000286,-0.00000337,-0.00000194,0.00000535,-0.00001188,0.00000494,-
 0.00000538,0.00000117,-0.00000393,-0.00000493,0.00000057,0.00000050,0.
 00032080,-0.00003345,-0.00004928,0.00000591,0.00001959,-0.00007789,-0.
 00001924,0.00000300,-0.00000944,-0.00006588,-0.00003478,-0.00000401,0.
 00035169,-0.00049924,0.00019093,-0.00000311,-0.00000175,-0.00000035,-0
 .00000684,0.00000473,-0.00000025,0.00000283,0.00000103,-0.00000083,0.0
 0000073,-0.00000040,-0.00000015,0.00000442,-0.00000161,0.00000213,0.00
 000224,-0.00000394,0.00000431,-0.00000124,-0.00000207,0.00000489,0.132
 99700,0.41838215,-0.00003753,0.00002177,0.00005527,0.00001887,0.000006
 06,-0.00000943,-0.00001142,-0.00001003,0.00000088,0.00007208,-0.000088
 71,-0.00001913,-0.00000319,-0.00001794,-0.00001182,0.00001360,-0.00005
 110,-0.00002429,0.00005904,-0.00000375,-0.00000491,0.00005459,-0.00003
 339,0.00000115,0.00004556,-0.00008982,-0.00000111,0.00001360,0.0000098
 5,-0.00000349,0.00001276,-0.00002275,-0.00001199,0.00004949,-0.0000102
 2,0.00003337,-0.00012789,0.00014004,-0.00016510,0.00004603,-0.00005067
 ,-0.00000533,-0.00002909,0.00003964,0.00001517,-0.00000789,0.00000407,
 -0.00000537,-0.00020107,0.00000459,0.00006330,-0.00460174,0.00163047,0
 .00328022,0.01052822,0.03341071,-0.00349652,-0.00349011,0.02853617,-0.
 03137549,0.00321741,-0.00581397,-0.00141797,-0.00006550,0.00011620,0.0
 0001777,0.00006645,-0.00006771,-0.00002171,-0.00004612,0.00005757,0.00
 001359,-0.00000997,-0.00001795,0.00000744,-0.00000274,0.00000400,-0.00
 000214,-0.00002193,-0.00006889,0.00000695,0.00002409,0.00002997,-0.000
 01029,-0.00005829,0.00000943,0.00000265,0.00003335,0.00005098,0.000007
 76,-0.00007128,-0.00001287,-0.00000899,0.00006282,0.00000149,0.0000153
 6,0.00000105,-0.00000215,-0.00000057,0.00007310,-0.00002786,0.00001016
 ,-0.00003045,0.00002965,-0.00000814,-0.00000548,0.00004946,0.00000832,
 0.00006961,-0.00009115,0.00002239,-0.00011230,0.00007075,-0.00000466,-
 0.00003507,-0.00003637,-0.00001045,-0.00000157,0.00000409,0.00000160,0
 .00009753,-0.00011702,-0.00013524,0.00001257,-0.00002078,-0.00004260,-
 0.00030591,0.00002759,0.00048633,0.00004426,0.00004044,-0.00025955,0.0
 0033590,-0.00005025,-0.00022048,-0.00000082,0.00000402,0.00000507,0.00
 002388,0.00001014,0.00000873,-0.00000078,-0.00001815,-0.00000253,-0.00
 000173,0.00004403,0.00004248,-0.00003620,0.00016288,-0.00015798,0.0002
 7954,0.00126864,-0.00033812,-0.00016952,-0.00013832,-0.00015241,0.0000
 0250,0.00000511,0.00000483,0.00000504,-0.00000635,0.00000044,-0.000000
 58,0.00000099,0.00000052,0.00000182,0.00000306,0.00000113,0.00000081,0
 .00000002,0.00000139,-0.00000514,-0.00000134,0.00000155,0.00000024,-0.
 00000028,-0.00000028,0.00000417,0.00000229,0.00000264,-0.00000479,0.00
 000604,0.00000495,-0.00000106,0.00000253,-0.00000025,0.00000937,-0.000
 00544,0.00000193,-0.00016780,0.00005036,0.00017780,0.00001182,0.000014
 51,0.00006752,-0.00001477,0.00000473,0.00001209,0.00003111,-0.00000258
 ,0.00001918,-0.00022459,0.00027385,0.00001046,0.00000135,0.00000883,0.
 00000558,0.00000276,-0.00000246,0.00000514,-0.00000181,-0.00000052,0.0
 0000426,-0.00000070,0.00000015,0.00000246,-0.00000282,0.00000103,0.000
 00123,-0.00000115,0.00000275,0.00000113,0.00000293,0.00000084,-0.00000
 089,-0.00524716,-0.05927658,0.03350410,0.00006802,0.00004912,0.0000000
 5,-0.00005178,-0.00000244,-0.00000713,0.00003199,-0.00001653,0.0000341
 4,-0.00015914,-0.00005602,0.00003112,-0.00005011,0.00001988,0.00001256
 ,0.00000713,0.00005266,0.00000224,-0.00049147,-0.00004319,-0.00007695,
 -0.00024038,-0.00019560,0.00006288,0.00003619,-0.00007590,-0.00001001,
 0.00005143,0.00004290,0.00000716,-0.00004179,0.00012972,0.00000522,0.0
 0011029,0.00027013,-0.00005172,0.00010992,-0.00012552,-0.00000440,0.00
 001145,0.00000556,-0.00000754,0.00008529,0.00008762,-0.00001901,-0.000
 00763,-0.00000571,0.00000547,-0.00001137,-0.00003756,-0.00000912,0.000
 08140,0.00009747,0.00004442,-0.00059131,-0.00033936,-0.00037562,0.0001
 9495,-0.00003448,0.00021973,0.00035142,0.00063302,0.00046575,-0.000042
 78,0.00004316,0.00001722,0.00003192,-0.00000065,-0.00000929,0.00003074
 ,0.00008815,0.00000292,-0.00007301,-0.00009539,-0.00000153,0.00000174,
 -0.00000353,0.00000021,-0.00001998,-0.00007453,0.00000897,0.00002879,0
 .00002909,-0.00000863,0.00002802,-0.00007295,-0.00000272,-0.00005371,-
 0.00002687,-0.00000854,-0.00001477,0.00005131,0.00000374,-0.00002114,-
 0.00008611,-0.00002000,0.00000339,-0.00000145,0.00000064,-0.00000462,0
 .00001701,-0.00000216,0.00000527,-0.00000528,0.00000050,0.00028100,0.0
 0021436,-0.00002363,0.00038879,-0.00001693,-0.00002730,-0.00061985,0.0
 0007767,0.00018883,0.00021339,-0.00031493,-0.00001847,-0.00000075,0.00
 007453,-0.00006271,-0.00025238,0.00006583,0.00069030,0.00101732,0.0001
 4760,-0.00029762,-0.01083208,-0.01618933,0.02305843,0.00165323,0.00450
 826,0.00437343,-0.02861884,-0.00961944,0.04466393,0.00000028,-0.000004
 65,-0.00000961,-0.00002234,0.00000198,0.00000057,0.00000245,0.00000310
 ,0.00000925,-0.00001236,0.00000559,-0.00001321,-0.00000278,-0.00004287
 ,0.00001144,0.00001103,0.00000871,0.00001381,0.00000964,0.00002229,-0.
 00002734,-0.00000395,0.00000563,-0.00000032,0.00000224,-0.00000236,0.0
 0000195,0.00000067,-0.00000329,-0.00000123,0.00000046,0.00000108,-0.00
 000022,-0.00000058,0.00000101,-0.00000007,-0.00000278,-0.00000128,-0.0
 0000064,0.00000154,0.00000085,-0.00000038,0.00000008,0.00000097,0.0000
 0098,-0.00006069,-0.00004421,0.00006414,-0.00004773,0.00002595,0.00000
 693,-0.00000456,-0.00007272,-0.00000237,0.00028318,-0.00040614,-0.0004
 9949,0.00088766,0.00090579,0.00001864,-0.00167200,0.00169063,-0.000434
 20,-0.00054208,-0.00069005,-0.00033208,0.00008345,-0.00016823,-0.00004
 557,0.00000112,-0.00001116,-0.00000255,-0.00001792,0.00002705,-0.00000
 280,-0.00000012,-0.00000182,-0.00000039,-0.00000249,0.00000346,-0.0000
 0003,-0.00000038,-0.00000231,0.00000024,-0.00000010,-0.00000301,0.0000
 0110,-0.00000013,-0.00000033,-0.00000300,-0.00004754,0.00001101,-0.000
 17136,0.03853256,0.00005424,-0.00008002,-0.00010122,0.00009931,-0.0000
 1768,0.00008548,-0.00010230,0.00005749,-0.00011773,0.00018769,0.000386
 91,-0.00006076,0.00000910,-0.00000645,0.00000561,-0.00005985,0.0000356
 2,0.00005126,0.00094027,-0.00033990,0.00023060,0.00070857,0.00027123,-
 0.00003142,-0.00024415,0.00047519,0.00002922,-0.00026022,-0.00017825,-
 0.00001513,0.00009807,-0.00022937,0.00006200,-0.00032736,-0.00074404,0
 .00012488,-0.00000222,0.00007436,0.00002095,-0.00012464,-0.00000471,0.
 00002396,-0.00018822,-0.00038107,0.00005630,0.00002052,0.00002398,-0.0
 0001213,-0.00001285,0.00000115,-0.00000883,0.00001258,-0.00002235,-0.0
 0000365,-0.00025297,0.00019601,-0.00019647,0.00015991,-0.00018760,0.00
 014157,0.00022808,-0.00006980,0.00012665,0.00038731,-0.00042653,-0.000
 09002,-0.00022942,0.00018044,0.00006543,0.00006672,-0.00031831,-0.0000
 3641,0.00025313,0.00017745,-0.00002444,0.00000330,-0.00000830,0.000005
 05,0.00008451,0.00030847,-0.00003943,-0.00011730,-0.00012855,0.0000334
 1,0.00028736,0.00019163,0.00002010,-0.00010924,-0.00017677,-0.00002672
 ,0.00033355,-0.00001377,0.00003481,-0.00019792,0.00021179,0.00000400,0
 .00000099,0.00000659,0.00000958,-0.00030229,0.00012514,-0.00005243,0.0
 0012731,-0.00012621,0.00001824,-0.00091629,-0.00093607,-0.00002780,-0.
 00102365,0.00123073,-0.00051341,0.00111369,-0.00172497,0.00036570,-0.0
 0023306,0.00064655,-0.00002390,0.00003729,-0.00003089,0.00005462,-0.00
 115766,0.00287070,0.00183749,0.00129400,-0.00134887,-0.00112307,0.0071
 2311,0.00235174,-0.02407581,0.00463539,0.00195907,-0.00353660,-0.03366
 598,-0.14003240,0.20429234,-0.00000015,0.00000615,0.00000488,0.0000086
 4,-0.00001492,0.00000147,-0.00000336,0.00000351,-0.00000441,0.00002093
 ,0.00000937,0.00000865,-0.00002169,0.00000684,0.00001757,-0.00001168,0
 .00000738,-0.00002091,0.00000932,0.00000424,0.00000695,-0.00000086,-0.
 00001990,-0.00000227,-0.00001453,0.00001190,-0.00000248,-0.00000345,0.
 00000747,-0.00000092,-0.00000327,-0.00000969,0.00000275,0.00000178,-0.
 00000304,0.00000272,0.00001523,0.00000008,-0.00000220,-0.00000309,-0.0
 0000091,-0.00000222,-0.00000889,-0.00000883,-0.00000645,-0.00002602,0.
 00003243,0.00001307,0.00000353,0.00000121,-0.00000489,-0.00002067,0.00
 001850,-0.00001090,0.00056011,-0.00023173,-0.00066300,0.00004698,-0.00
 045812,-0.00040820,0.00125017,-0.00032520,-0.00045992,0.00004529,0.000
 33561,-0.00014070,-0.00002983,0.00003982,-0.00008154,-0.00000604,0.000
 00729,0.00001114,-0.00000670,0.00001576,0.00000209,0.00000822,0.000001
 93,-0.00000633,0.,0.00000226,0.00000039,0.00000971,-0.00000600,0.00000
 426,0.00000350,-0.00001357,0.00000980,-0.00000387,-0.00000149,0.000014
 85,-0.00003169,0.00006598,-0.00000441,0.01947400,0.13626628,0.00004349
 ,-0.00008240,-0.00012830,0.00021507,-0.00001410,0.00016238,-0.00021782
 ,0.00004954,-0.00017887,0.00020680,0.00042561,-0.00007494,-0.00000444,
 -0.00001089,0.00001303,-0.00006249,0.00000534,0.00004701,0.00107527,-0
 .00029704,0.00023708,0.00081280,0.00032866,-0.00006776,-0.00026581,0.0
 0051835,0.00003096,-0.00029652,-0.00019714,-0.00001841,0.00011475,-0.0
 0026825,0.00007363,-0.00035023,-0.00082616,0.00016280,-0.00001745,0.00
 008347,0.00000497,-0.00013981,0.00001147,0.00002234,-0.00019712,-0.000
 41433,0.00006678,0.00002359,0.00002481,-0.00001213,0.00000824,0.000024
 96,0.00002196,0.00002522,-0.00000867,0.00001174,-0.00029581,0.00009874
 ,-0.00017684,0.00015173,-0.00014335,0.00011432,0.00032342,0.00006034,0
 .00002661,0.00043042,-0.00043886,-0.00009532,-0.00023255,0.00017583,0.
 00006305,0.00005811,-0.00033376,-0.00003400,0.00027999,0.00018368,-0.0
 0002406,0.00000303,-0.00000870,0.00000496,0.00008422,0.00031669,-0.000
 04153,-0.00012138,-0.00013099,0.00003267,0.00029760,0.00023782,0.00002
 615,-0.00010290,-0.00017203,-0.00002559,0.00034037,-0.00002327,0.00003
 453,-0.00018471,0.00024650,0.00001057,0.00000194,0.00000622,0.00001139
 ,-0.00030140,0.00012211,-0.00005688,0.00012657,-0.00012549,0.00001356,
 -0.00103637,-0.00096093,-0.00002039,-0.00118843,0.00127042,-0.00061972
 ,0.00122153,-0.00143670,0.00053138,-0.00031632,0.00075267,-0.00001356,
 0.00001734,-0.00008675,0.00001587,-0.00138211,0.00238008,0.00093793,-0
 .00150750,0.00009751,0.00183596,-0.00374545,0.02055449,-0.02283611,0.0
 0444203,-0.00378280,0.00177479,0.07205544,0.15748403,-0.31867775,0.000
 00128,0.00001227,0.00000630,0.00001247,-0.00001494,0.00000642,-0.00000
 279,-0.00000020,-0.00000667,0.00002667,0.00001344,0.00000766,-0.000018
 31,-0.00000553,0.00003663,-0.00001023,0.00000731,-0.00002978,0.0000107
 1,0.00001010,0.00000292,-0.00000037,-0.00002040,-0.00000068,-0.0000143
 4,0.00001114,-0.00000294,-0.00000376,0.00000940,-0.00000061,-0.0000027
 1,-0.00000950,0.00000370,0.00000241,-0.00000331,0.00000384,0.00001475,
 -0.00000065,-0.00000176,-0.00000394,-0.00000074,-0.00000248,-0.0000079
 8,-0.00000886,-0.00000607,0.00003228,0.00005599,0.00007566,-0.00003933
 ,0.00006469,-0.00001677,-0.00000920,0.00003493,-0.00001816,0.00050860,
 -0.00014888,-0.00072400,-0.00027560,-0.00093219,-0.00073075,0.00040597
 ,-0.00028598,0.00116226,0.00051047,0.00129321,0.00012324,-0.00002811,0
 .00003057,-0.00001467,-0.00000561,0.00000965,0.00001522,-0.00000366,0.
 00000715,0.00001514,0.00000819,0.00000137,-0.00000522,-0.00000049,0.00
 000200,0.00000358,0.00000909,-0.00000552,0.00000693,0.00000290,-0.0000
 1363,0.00001554,-0.00000297,-0.00000143,0.00001639,-0.00007077,0.00005
 256,-0.00000706,-0.07143796,-0.17586071,0.33687992\\0.00886541,-0.0092
 0766,-0.05031273,0.09066443,0.00775476,0.06763878,-0.09195961,-0.00771
 471,-0.06458083,0.02578359,-0.00456463,0.00389333,0.00536172,0.0215245
 5,0.01293634,-0.02106295,0.00987002,0.01563264,0.00094582,-0.02264811,
 0.01821200,0.00477245,0.00089258,-0.00020691,-0.00275234,0.00451226,0.
 00041301,-0.00185600,-0.00151616,-0.00008089,-0.00036164,-0.00136696,0
 .00079282,-0.00236312,-0.00575475,0.00119910,0.00058344,-0.00028118,0.
 00015272,-0.00156882,0.00023907,0.00017929,-0.00086483,-0.00352865,0.0
 0043803,0.00025979,0.00023413,-0.00015658,0.00002241,-0.00007827,0.000
 21916,0.00218668,0.00045817,0.00081907,-0.01089154,0.00183524,-0.00824
 380,0.00556145,-0.00420965,0.00528562,0.00132039,0.00074335,0.00447572
 ,0.00322697,-0.00482861,-0.00084039,-0.00293594,0.00264506,0.00084388,
 0.00149930,-0.00298079,-0.00039826,0.00176732,0.00224736,-0.00016770,0
 .00004856,-0.00018779,0.00004257,0.00075636,0.00320425,-0.00041448,-0.
 00116759,-0.00130117,0.00030865,0.00355043,0.00031409,-0.00021917,-0.0
 0216129,-0.00244255,-0.00043931,0.00326653,0.00073988,0.00039844,-0.00
 232760,0.00045705,-0.00009275,0.00010827,-0.00004425,0.00010715,-0.003
 50083,0.00152217,-0.00064795,0.00155647,-0.00149090,0.00026158,-0.0137
 2743,-0.02354559,-0.00012211,-0.01852103,0.02978203,-0.01083281,0.0179
 2358,-0.05495220,0.00602527,0.00643382,0.01494600,0.00194839,-0.011399
 39,0.00234466,-0.00214428,0.08206966,0.14462769,-0.03918998,-0.2256850
 2,-0.37128838,-0.38002205,0.00430372,-0.02378892,0.00395159,-0.0000485
 9,0.00924144,-0.00866206,-0.00368269,0.00658774,-0.00645990,-0.0000230
 8,0.00005633,0.00002723,-0.00004180,-0.00013695,0.00006645,-0.00002765
 ,-0.00000107,-0.00000154,0.00016508,0.00023262,0.00001660,-0.00032694,
 -0.00026000,0.00050370,0.00010183,0.00027572,-0.00019582,0.00027616,0.
 00072451,-0.00017650,0.00001607,-0.00016383,-0.00003504,-0.00018015,0.
 00012524,-0.00002865,-0.00005513,0.00007384,-0.00000012,-0.00006649,-0
 .00015289,-0.00000980,0.00003663,-0.00004309,0.00004555,0.00010369,-0.
 00000595,-0.00002270,0.00002880,0.00000495,-0.00000481,-0.00009613,-0.
 00008852,-0.00006582,-0.01871171,0.02079279,-0.00655975,-0.00102908,0.
 00071958,0.00060391,-0.00059064,-0.00005291,-0.00079394,-0.00019574,-0
 .02835627,-0.00906384,0.18718394,0.30857481,0.43022568,0.00858414,0.00
 546866,0.00919189,-0.03144697,-0.02408414,-0.00021127,0.00174948,-0.00
 103620,-0.00215964,-0.00001089,-0.00003111,0.00007829,-0.00026682,0.00
 060600,-0.00002491,0.00016624,0.00006150,-0.00005625,-0.00000142,0.000
 06625,-0.00000200,0.00004292,-0.00007423,0.00005673,0.00001495,-0.0001
 5535,0.00008165,-0.00004027,0.00003103,0.00017027,-0.00082581,0.001953
 40,-0.00139797,0.00146645,-0.00412637,0.00780224\\\@


 IT IS A CAPITAL MISTAKE TO THEORIZE BEFORE ONE HAS
 DATA.  INSENSIBLY ONE BEGINS TO TWIST FACTS TO SUIT
 THEORIES RATHER THAN THEORIES TO SUIT FACTS.

                                         -- SHERLOCK HOLMES
 Job cpu time:       0 days 10 hours  3 minutes 27.3 seconds.
 File lengths (MBytes):  RWF=   2465 Int=      0 D2E=      0 Chk=     23 Scr=      1
 Normal termination of Gaussian 09 at Mon Feb 29 10:38:40 2016.
